 Entering Gaussian System, Link 0=g16
 Input=input.gjf
 Output=input.log
 Initial command:
 /opt/ohpc/pub/apps/gaussian/G16x86_64_legacy_CPUs_linux_binary/g16/l1.exe "/tmp/Gau-24919.inp" -scrdir="/tmp/"
 Entering Link 1 = /opt/ohpc/pub/apps/gaussian/G16x86_64_legacy_CPUs_linux_binary/g16/l1.exe PID=     24944.
  
 Copyright (c) 1988,1990,1992,1993,1995,1998,2003,2009,2016,
            Gaussian, Inc.  All Rights Reserved.
  
 This is part of the Gaussian(R) 16 program.  It is based on
 the Gaussian(R) 09 system (copyright 2009, Gaussian, Inc.),
 the Gaussian(R) 03 system (copyright 2003, Gaussian, Inc.),
 the Gaussian(R) 98 system (copyright 1998, Gaussian, Inc.),
 the Gaussian(R) 94 system (copyright 1995, Gaussian, Inc.),
 the Gaussian 92(TM) system (copyright 1992, Gaussian, Inc.),
 the Gaussian 90(TM) system (copyright 1990, Gaussian, Inc.),
 the Gaussian 88(TM) system (copyright 1988, Gaussian, Inc.),
 the Gaussian 86(TM) system (copyright 1986, Carnegie Mellon
 University), and the Gaussian 82(TM) system (copyright 1983,
 Carnegie Mellon University). Gaussian is a federally registered
 trademark of Gaussian, Inc.
  
 This software contains proprietary and confidential information,
 including trade secrets, belonging to Gaussian, Inc.
  
 This software is provided under written license and may be
 used, copied, transmitted, or stored only in accord with that
 written license.
  
 The following legend is applicable only to US Government
 contracts under FAR:
  
                    RESTRICTED RIGHTS LEGEND
  
 Use, reproduction and disclosure by the US Government is
 subject to restrictions as set forth in subparagraphs (a)
 and (c) of the Commercial Computer Software - Restricted
 Rights clause in FAR 52.227-19.
  
 Gaussian, Inc.
 340 Quinnipiac St., Bldg. 40, Wallingford CT 06492
  
  
 ---------------------------------------------------------------
 Warning -- This program may not be used in any manner that
 competes with the business of Gaussian, Inc. or will provide
 assistance to any competitor of Gaussian, Inc.  The licensee
 of this program is prohibited from giving any competitor of
 Gaussian, Inc. access to this program.  By using this program,
 the user acknowledges that Gaussian, Inc. is engaged in the
 business of creating and licensing software in the field of
 computational chemistry and represents and warrants to the
 licensee that it is not a competitor of Gaussian, Inc. and that
 it will not use this program in any manner prohibited above.
 ---------------------------------------------------------------
  

 Cite this work as:
 Gaussian 16, Revision A.03,
 M. J. Frisch, G. W. Trucks, H. B. Schlegel, G. E. Scuseria, 
 M. A. Robb, J. R. Cheeseman, G. Scalmani, V. Barone, 
 G. A. Petersson, H. Nakatsuji, X. Li, M. Caricato, A. V. Marenich, 
 J. Bloino, B. G. Janesko, R. Gomperts, B. Mennucci, H. P. Hratchian, 
 J. V. Ortiz, A. F. Izmaylov, J. L. Sonnenberg, D. Williams-Young, 
 F. Ding, F. Lipparini, F. Egidi, J. Goings, B. Peng, A. Petrone, 
 T. Henderson, D. Ranasinghe, V. G. Zakrzewski, J. Gao, N. Rega, 
 G. Zheng, W. Liang, M. Hada, M. Ehara, K. Toyota, R. Fukuda, 
 J. Hasegawa, M. Ishida, T. Nakajima, Y. Honda, O. Kitao, H. Nakai, 
 T. Vreven, K. Throssell, J. A. Montgomery, Jr., J. E. Peralta, 
 F. Ogliaro, M. J. Bearpark, J. J. Heyd, E. N. Brothers, K. N. Kudin, 
 V. N. Staroverov, T. A. Keith, R. Kobayashi, J. Normand, 
 K. Raghavachari, A. P. Rendell, J. C. Burant, S. S. Iyengar, 
 J. Tomasi, M. Cossi, J. M. Millam, M. Klene, C. Adamo, R. Cammi, 
 J. W. Ochterski, R. L. Martin, K. Morokuma, O. Farkas, 
 J. B. Foresman, and D. J. Fox, Gaussian, Inc., Wallingford CT, 2016.
 
 ******************************************
 Gaussian 16:  EM64L-G16RevA.03 25-Dec-2016
                28-Jun-2023 
 ******************************************
 %NProcShared=24
 Will use up to   24 processors via shared memory.
 %Chk=ch3hgf_gas_apfd_def2svp.chk
 ----------------------------------------------------
 #Opt Freq PBE1PBE/def2svp int=UltraFine scf=xqc test
 ----------------------------------------------------
 1/18=20,19=15,26=4,38=1/1,3;
 2/9=110,12=2,17=6,18=5,40=1/2;
 3/5=43,7=101,11=2,25=1,30=1,71=1,74=-13,75=-5/1,2,3;
 4//1;
 5/5=2,8=3,13=1,38=5/2,8;
 6/7=2,8=2,9=2,10=2,28=1/1;
 7//1,2,3,16;
 1/18=20,19=15,26=4/3(2);
 2/9=110/2;
 99//99;
 2/9=110/2;
 3/5=43,7=101,11=2,25=1,30=1,71=1,74=-13,75=-5/1,2,3;
 4/5=5,16=3,69=1/1;
 5/5=2,8=3,13=1,38=5/2,8;
 7//1,2,3,16;
 1/18=20,19=15,26=4/3(-5);
 2/9=110/2;
 6/7=2,8=2,9=2,10=2,19=2,28=1/1;
 99/9=1/99;
 ------------------------------------------
 Optimization MeHgCl-apfd-def2svp-gas phase
 ------------------------------------------
 Symbolic Z-matrix:
 Charge =  0 Multiplicity = 1
 C                    -4.87226   1.58796   0.00002 
 Hg                   -3.37421   3.08412   0.00005 
 H                    -4.63754   0.85031   0.7709 
 H                    -4.89474   1.108    -0.98111 
 H                    -5.83831   2.05276   0.2102 
 F                    -1.69759   4.75882  -0.00006 
 

 GradGradGradGradGradGradGradGradGradGradGradGradGradGradGradGradGradGrad
 Berny optimization.
 Initialization pass.
                           ----------------------------
                           !    Initial Parameters    !
                           ! (Angstroms and Degrees)  !
 --------------------------                            --------------------------
 ! Name  Definition              Value          Derivative Info.                !
 --------------------------------------------------------------------------------
 ! R1    R(1,2)                  2.1172         estimate D2E/DX2                !
 ! R2    R(1,3)                  1.0925         estimate D2E/DX2                !
 ! R3    R(1,4)                  1.0925         estimate D2E/DX2                !
 ! R4    R(1,5)                  1.0925         estimate D2E/DX2                !
 ! R5    R(2,6)                  2.3697         estimate D2E/DX2                !
 ! A1    A(2,1,3)              108.9724         estimate D2E/DX2                !
 ! A2    A(2,1,4)              108.9678         estimate D2E/DX2                !
 ! A3    A(2,1,5)              108.9665         estimate D2E/DX2                !
 ! A4    A(3,1,4)              109.9682         estimate D2E/DX2                !
 ! A5    A(3,1,5)              109.9692         estimate D2E/DX2                !
 ! A6    A(4,1,5)              109.9691         estimate D2E/DX2                !
 ! A7    L(1,2,6,5,-1)         179.9977         estimate D2E/DX2                !
 ! A8    L(1,2,6,5,-2)         180.0102         estimate D2E/DX2                !
 ! D1    D(2,1,4,3)            119.3833         estimate D2E/DX2                !
 ! D2    D(2,1,5,3)           -119.383          estimate D2E/DX2                !
 ! D3    D(2,1,5,4)            119.3773         estimate D2E/DX2                !
 ! D4    D(3,1,5,4)           -121.2396         estimate D2E/DX2                !
 --------------------------------------------------------------------------------
 Trust Radius=3.00D-01 FncErr=1.00D-07 GrdErr=1.00D-06 EigMax=2.50D+02 EigMin=1.00D-04
 Number of steps in this run=     27 maximum allowed number of steps=    100.
 GradGradGradGradGradGradGradGradGradGradGradGradGradGradGradGradGradGrad

                          Input orientation:                          
 ---------------------------------------------------------------------
 Center     Atomic      Atomic             Coordinates (Angstroms)
 Number     Number       Type             X           Y           Z
 ---------------------------------------------------------------------
      1          6           0       -4.872260    1.587957    0.000017
      2         80           0       -3.374214    3.084122    0.000049
      3          1           0       -4.637535    0.850314    0.770897
      4          1           0       -4.894741    1.107998   -0.981111
      5          1           0       -5.838309    2.052761    0.210203
      6          9           0       -1.697590    4.758818   -0.000055
 ---------------------------------------------------------------------
                    Distance matrix (angstroms):
                    1          2          3          4          5
     1  C    0.000000
     2  Hg   2.117227   0.000000
     3  H    1.092460   2.679568   0.000000
     4  H    1.092464   2.679504   1.789438   0.000000
     5  H    1.092461   2.679484   1.789445   1.789449   0.000000
     6  F    4.486969   2.369741   4.951166   4.951033   4.951011
                    6
     6  F    0.000000
 This structure is nearly, but not quite of a higher symmetry.
 Consider Symm=Loose if the higher symmetry is desired.
 Stoichiometry    CH3FHg
 Framework group  C1[X(CH3FHg)]
 Deg. of freedom    12
 Full point group                 C1      NOp   1
 Largest Abelian subgroup         C1      NOp   1
 Largest concise Abelian subgroup C1      NOp   1
                         Standard orientation:                         
 ---------------------------------------------------------------------
 Center     Atomic      Atomic             Coordinates (Angstroms)
 Number     Number       Type             X           Y           Z
 ---------------------------------------------------------------------
      1          6           0        0.274855    0.691131   -1.995435
      2         80           0        0.001606    0.004004   -0.011539
      3          1           0        1.275212    1.120287   -2.088057
      4          1           0       -0.478833    1.450865   -2.215062
      5          1           0        0.165619   -0.152038   -2.681443
      6          9           0       -0.304405   -0.765132    2.208925
 ---------------------------------------------------------------------
 Rotational constants (GHZ):         156.6014583           2.8084315           2.8084312
 Standard basis: def2SVP (5D, 7F)
 There are    82 symmetry adapted cartesian basis functions of A   symmetry.
 There are    75 symmetry adapted basis functions of A   symmetry.
    75 basis functions,   136 primitive gaussians,    82 cartesian basis functions
    19 alpha electrons       19 beta electrons
       nuclear repulsion energy       100.8976350340 Hartrees.
 NAtoms=    6 NActive=    6 NUniq=    6 SFac= 1.00D+00 NAtFMM=   60 NAOKFM=F Big=F
 Integral buffers will be    131072 words long.
 Raffenetti 2 integral format.
 Two-electron integral symmetry is turned on.
 One-electron integrals computed using PRISM.
 PrsmSu:  requested number of processors reduced to:  13 ShMem   1 Linda.
   1 Symmetry operations used in ECPInt.
 ECPInt:  NShTT=     561 NPrTT=    1759 LenC2=     553 LenP2D=    1509.
 LDataN:  DoStor=T MaxTD1= 8 Len=  415
 NBasis=    75 RedAO= T EigKep=  9.29D-03  NBF=    75
 NBsUse=    75 1.00D-06 EigRej= -1.00D+00 NBFU=    75
 Defaulting to unpruned grid for atomic number  80.
 ExpMin= 5.64D-02 ExpMax= 2.89D+03 ExpMxC= 4.35D+02 IAcc=3 IRadAn=         5 AccDes= 0.00D+00
 Harris functional with IExCor= 1009 and IRadAn=       5 diagonalized for initial guess.
 HarFok:  IExCor= 1009 AccDes= 0.00D+00 IRadAn=         5 IDoV= 1 UseB2=F ITyADJ=14
 ICtDFT=  3500011 ScaDFX=  1.000000  1.000000  1.000000  1.000000
 Defaulting to unpruned grid for atomic number  80.
 FoFCou: FMM=F IPFlag=           0 FMFlag=      100000 FMFlg1=           0
         NFxFlg=           0 DoJE=T BraDBF=F KetDBF=T FulRan=T
         wScrn=  0.000000 ICntrl=       500 IOpCl=  0 I1Cent=   200000004 NGrid=           0
         NMat0=    1 NMatS0=      1 NMatT0=    0 NMatD0=    1 NMtDS0=    0 NMtDT0=    0
 Petite list used in FoFCou.
 Keep R1 ints in memory in canonical form, NReq=25774275.
 Requested convergence on RMS density matrix=1.00D-08 within  32 cycles.
 Requested convergence on MAX density matrix=1.00D-06.
 Requested convergence on             energy=1.00D-06.
 No special actions if energy rises.
 Integral accuracy reduced to 1.0D-05 until final iterations.
 Defaulting to unpruned grid for atomic number  80.
 Defaulting to unpruned grid for atomic number  80.
 Defaulting to unpruned grid for atomic number  80.
 Defaulting to unpruned grid for atomic number  80.
 Defaulting to unpruned grid for atomic number  80.
 Defaulting to unpruned grid for atomic number  80.
 Defaulting to unpruned grid for atomic number  80.
 Defaulting to unpruned grid for atomic number  80.
 Defaulting to unpruned grid for atomic number  80.
 Defaulting to unpruned grid for atomic number  80.
 Defaulting to unpruned grid for atomic number  80.
 Defaulting to unpruned grid for atomic number  80.
 Defaulting to unpruned grid for atomic number  80.
 Defaulting to unpruned grid for atomic number  80.
 Defaulting to unpruned grid for atomic number  80.
 Defaulting to unpruned grid for atomic number  80.
 Defaulting to unpruned grid for atomic number  80.
 Defaulting to unpruned grid for atomic number  80.
 Defaulting to unpruned grid for atomic number  80.
 Defaulting to unpruned grid for atomic number  80.
 Defaulting to unpruned grid for atomic number  80.
 Defaulting to unpruned grid for atomic number  80.
 Defaulting to unpruned grid for atomic number  80.
 Defaulting to unpruned grid for atomic number  80.
 Initial convergence to 1.0D-05 achieved.  Increase integral accuracy.
 SCF Done:  E(RPBE1PBE) =  -292.932381113     A.U. after   14 cycles
            NFock= 14  Conv=0.77D-08     -V/T= 2.5475
 QCSCF skips out because SCF is already converged.

 **********************************************************************

            Population analysis using the SCF density.

 **********************************************************************

 Orbital symmetries:
       Occupied  (A) (A) (A) (A) (A) (A) (A) (A) (A) (A) (A) (A)
                 (A) (A) (A) (A) (A) (A) (A)
       Virtual   (A) (A) (A) (A) (A) (A) (A) (A) (A) (A) (A) (A)
                 (A) (A) (A) (A) (A) (A) (A) (A) (A) (A) (A) (A)
                 (A) (A) (A) (A) (A) (A) (A) (A) (A) (A) (A) (A)
                 (A) (A) (A) (A) (A) (A) (A) (A) (A) (A) (A) (A)
                 (A) (A) (A) (A) (A) (A) (A) (A)
 The electronic state is 1-A.
 Alpha  occ. eigenvalues --  -24.63259 -10.28289  -4.54926  -2.67780  -2.67377
 Alpha  occ. eigenvalues --   -2.67377  -1.00097  -0.73902  -0.51720  -0.51369
 Alpha  occ. eigenvalues --   -0.51369  -0.49748  -0.49748  -0.43687  -0.43687
 Alpha  occ. eigenvalues --   -0.36804  -0.29976  -0.28243  -0.28243
 Alpha virt. eigenvalues --   -0.06941  -0.00809  -0.00809   0.05653   0.12206
 Alpha virt. eigenvalues --    0.12206   0.16908   0.19122   0.41192   0.41192
 Alpha virt. eigenvalues --    0.46280   0.46280   0.49136   0.58575   0.58577
 Alpha virt. eigenvalues --    0.59131   0.65996   0.65996   0.69255   0.77863
 Alpha virt. eigenvalues --    0.81039   0.81039   1.04171   1.18604   1.18605
 Alpha virt. eigenvalues --    1.31960   1.34363   1.34364   1.43269   1.49973
 Alpha virt. eigenvalues --    1.54091   1.54092   1.54428   1.54436   1.54589
 Alpha virt. eigenvalues --    1.54589   1.68347   1.75264   1.75264   1.92657
 Alpha virt. eigenvalues --    1.96158   1.96158   2.16929   2.28570   2.40789
 Alpha virt. eigenvalues --    2.40789   2.71358   2.89292   2.89293   3.23110
 Alpha virt. eigenvalues --    3.23110   3.23136   3.23136   3.33247  33.21533
 Alpha virt. eigenvalues --  121.41486
          Condensed to atoms (all electrons):
               1          2          3          4          5          6
     1  C    5.012263   0.268054   0.374725   0.374721   0.374720  -0.001264
     2  Hg   0.268054  19.081810  -0.025790  -0.025794  -0.025795   0.165406
     3  H    0.374725  -0.025790   0.567129  -0.012886  -0.012886   0.000022
     4  H    0.374721  -0.025794  -0.012886   0.567134  -0.012885   0.000022
     5  H    0.374720  -0.025795  -0.012886  -0.012885   0.567135   0.000022
     6  F   -0.001264   0.165406   0.000022   0.000022   0.000022   9.323750
 Mulliken charges:
               1
     1  C   -0.403218
     2  Hg   0.562109
     3  H    0.109687
     4  H    0.109689
     5  H    0.109689
     6  F   -0.487957
 Sum of Mulliken charges =  -0.00000
 Mulliken charges with hydrogens summed into heavy atoms:
               1
     1  C   -0.074152
     2  Hg   0.562109
     6  F   -0.487957
 Electronic spatial extent (au):  <R**2>=            437.5689
 Charge=             -0.0000 electrons
 Dipole moment (field-independent basis, Debye):
    X=              0.7124    Y=              1.7907    Z=             -5.1698  Tot=              5.5173
 Quadrupole moment (field-independent basis, Debye-Ang):
   XX=            -34.0677   YY=            -35.0993   ZZ=            -44.0893
   XY=             -0.4877   XZ=              1.4079   YZ=              3.5386
 Traceless Quadrupole moment (field-independent basis, Debye-Ang):
   XX=              3.6844   YY=              2.6528   ZZ=             -6.3372
   XY=             -0.4877   XZ=              1.4079   YZ=              3.5386
 Octapole moment (field-independent basis, Debye-Ang**2):
  XXX=             -1.1025  YYY=             -3.2443  ZZZ=            -13.7932  XYY=             -0.4323
  XXY=             -0.4768  XXZ=              3.3890  XZZ=              2.9134  YZZ=              7.1796
  YYZ=              0.4239  XYZ=             -1.2079
 Hexadecapole moment (field-independent basis, Debye-Ang**3):
 XXXX=            -45.2243 YYYY=            -81.5277 ZZZZ=           -425.3534 XXXY=             -7.0276
 XXXZ=             22.3302 YYYX=             -9.2420 YYYZ=             60.1472 ZZZX=             30.3244
 ZZZY=             77.2814 XXYY=            -20.0869 XXZZ=            -71.4231 YYZZ=            -80.4674
 XXYZ=             18.1018 YYXZ=              9.2099 ZZXY=             -5.1580
 N-N= 1.008976350340D+02 E-N=-8.526487582959D+02  KE= 1.892975333671D+02
 PrsmSu:  requested number of processors reduced to:  13 ShMem   1 Linda.
   1 Symmetry operations used in ECPInt.
 ECPInt:  NShTT=     561 NPrTT=    1759 LenC2=     553 LenP2D=    1509.
 LDataN:  DoStor=T MaxTD1= 9 Len=  602
 Calling FoFJK, ICntrl=      2127 FMM=F ISym2X=0 I1Cent= 0 IOpClX= 0 NMat=1 NMatS=1 NMatT=0.
 Defaulting to unpruned grid for atomic number  80.
 Defaulting to unpruned grid for atomic number  80.
 Defaulting to unpruned grid for atomic number  80.
 Defaulting to unpruned grid for atomic number  80.
 Defaulting to unpruned grid for atomic number  80.
 Defaulting to unpruned grid for atomic number  80.
 Defaulting to unpruned grid for atomic number  80.
 Defaulting to unpruned grid for atomic number  80.
 Defaulting to unpruned grid for atomic number  80.
 Defaulting to unpruned grid for atomic number  80.
 Defaulting to unpruned grid for atomic number  80.
 Defaulting to unpruned grid for atomic number  80.
 Defaulting to unpruned grid for atomic number  80.
 Defaulting to unpruned grid for atomic number  80.
 Defaulting to unpruned grid for atomic number  80.
 Defaulting to unpruned grid for atomic number  80.
 Defaulting to unpruned grid for atomic number  80.
 Defaulting to unpruned grid for atomic number  80.
 Defaulting to unpruned grid for atomic number  80.
 Defaulting to unpruned grid for atomic number  80.
 Defaulting to unpruned grid for atomic number  80.
 Defaulting to unpruned grid for atomic number  80.
 Defaulting to unpruned grid for atomic number  80.
 Defaulting to unpruned grid for atomic number  80.
 ***** Axes restored to original set *****
 -------------------------------------------------------------------
 Center     Atomic                   Forces (Hartrees/Bohr)
 Number     Number              X              Y              Z
 -------------------------------------------------------------------
      1        6           0.008077797    0.008071264   -0.000003229
      2       80           0.037433099    0.037375143   -0.000003176
      3        1           0.002546170   -0.001296955    0.003046609
      4        1           0.001528025   -0.000279793   -0.003873610
      5        1          -0.002200163    0.003450282    0.000830594
      6        9          -0.047384927   -0.047319941    0.000002812
 -------------------------------------------------------------------
 Cartesian Forces:  Max     0.047384927 RMS     0.020365197

 GradGradGradGradGradGradGradGradGradGradGradGradGradGradGradGradGradGrad
 Berny optimization.
 FormGI is forming the generalized inverse of G from B-inverse, IUseBI=4.
 Internal  Forces:  Max     0.066966469 RMS     0.016685524
 Search for a local minimum.
 Step number   1 out of a maximum of   27
 All quantities printed in internal units (Hartrees-Bohrs-Radians)
 Mixed Optimization -- RFO/linear search
 Second derivative matrix not updated -- first step.
 The second derivative matrix:
                          R1        R2        R3        R4        R5
           R1           0.14592
           R2           0.00000   0.34530
           R3           0.00000   0.00000   0.34529
           R4           0.00000   0.00000   0.00000   0.34530
           R5           0.00000   0.00000   0.00000   0.00000   0.08255
           A1           0.00000   0.00000   0.00000   0.00000   0.00000
           A2           0.00000   0.00000   0.00000   0.00000   0.00000
           A3           0.00000   0.00000   0.00000   0.00000   0.00000
           A4           0.00000   0.00000   0.00000   0.00000   0.00000
           A5           0.00000   0.00000   0.00000   0.00000   0.00000
           A6           0.00000   0.00000   0.00000   0.00000   0.00000
           A7           0.00000   0.00000   0.00000   0.00000   0.00000
           A8           0.00000   0.00000   0.00000   0.00000   0.00000
           D1           0.00000   0.00000   0.00000   0.00000   0.00000
           D2           0.00000   0.00000   0.00000   0.00000   0.00000
           D3           0.00000   0.00000   0.00000   0.00000   0.00000
           D4           0.00000   0.00000   0.00000   0.00000   0.00000
                          A1        A2        A3        A4        A5
           A1           0.16000
           A2           0.00000   0.16000
           A3           0.00000   0.00000   0.16000
           A4           0.00000   0.00000   0.00000   0.16000
           A5           0.00000   0.00000   0.00000   0.00000   0.16000
           A6           0.00000   0.00000   0.00000   0.00000   0.00000
           A7           0.00000   0.00000   0.00000   0.00000   0.00000
           A8           0.00000   0.00000   0.00000   0.00000   0.00000
           D1           0.00000   0.00000   0.00000   0.00000   0.00000
           D2           0.00000   0.00000   0.00000   0.00000   0.00000
           D3           0.00000   0.00000   0.00000   0.00000   0.00000
           D4           0.00000   0.00000   0.00000   0.00000   0.00000
                          A6        A7        A8        D1        D2
           A6           0.16000
           A7           0.00000   0.00230
           A8           0.00000   0.00000   0.00230
           D1           0.00000   0.00000   0.00000   0.00230
           D2           0.00000   0.00000   0.00000   0.00000   0.00230
           D3           0.00000   0.00000   0.00000   0.00000   0.00000
           D4           0.00000   0.00000   0.00000   0.00000   0.00000
                          D3        D4
           D3           0.00230
           D4           0.00000   0.00230
 ITU=  0
     Eigenvalues ---    0.00230   0.00230   0.05051   0.05656   0.08255
     Eigenvalues ---    0.08734   0.14592   0.16000   0.16000   0.34529
     Eigenvalues ---    0.34530   0.34530
 RFO step:  Lambda=-3.83724846D-02 EMin= 2.30000000D-03
 Linear search not attempted -- first point.
 Maximum step size (   0.300) exceeded in Quadratic search.
    -- Step size scaled by   0.536
 Iteration  1 RMS(Cart)=  0.05356214 RMS(Int)=  0.02349240
 Iteration  2 RMS(Cart)=  0.02144740 RMS(Int)=  0.00001540
 Iteration  3 RMS(Cart)=  0.00000009 RMS(Int)=  0.00001540
 Variable       Old X    -DE/DX   Delta X   Delta X   Delta X     New X
                                 (Linear)    (Quad)   (Total)
    R1        4.00098  -0.01407   0.00000  -0.04092  -0.04092   3.96006
    R2        2.06445   0.00357   0.00000   0.00499   0.00499   2.06944
    R3        2.06446   0.00357   0.00000   0.00499   0.00499   2.06945
    R4        2.06445   0.00357   0.00000   0.00499   0.00499   2.06945
    R5        4.47816  -0.06697   0.00000  -0.29686  -0.29686   4.18130
    A1        1.90193  -0.00048   0.00000  -0.00393  -0.00392   1.89801
    A2        1.90185  -0.00076   0.00000  -0.00444  -0.00443   1.89741
    A3        1.90182  -0.00149   0.00000  -0.00519  -0.00519   1.89664
    A4        1.91931   0.00018   0.00000   0.00356   0.00352   1.92283
    A5        1.91932   0.00118   0.00000   0.00483   0.00481   1.92413
    A6        1.91932   0.00133   0.00000   0.00491   0.00488   1.92421
    A7        3.14155  -0.00002   0.00000  -0.00032  -0.00032   3.14124
    A8        3.14177   0.00000   0.00000   0.00002   0.00002   3.14179
    D1        2.08363  -0.00095   0.00000  -0.00537  -0.00538   2.07825
    D2       -2.08363   0.00079   0.00000   0.00507   0.00508  -2.07855
    D3        2.08353  -0.00104   0.00000  -0.00565  -0.00567   2.07786
    D4       -2.11603  -0.00183   0.00000  -0.01072  -0.01074  -2.12678
         Item               Value     Threshold  Converged?
 Maximum Force            0.066966     0.000450     NO 
 RMS     Force            0.016686     0.000300     NO 
 Maximum Displacement     0.197353     0.001800     NO 
 RMS     Displacement     0.074701     0.001200     NO 
 Predicted change in Energy=-1.678701D-02
 GradGradGradGradGradGradGradGradGradGradGradGradGradGradGradGradGradGrad

                          Input orientation:                          
 ---------------------------------------------------------------------
 Center     Atomic      Atomic             Coordinates (Angstroms)
 Number     Number       Type             X           Y           Z
 ---------------------------------------------------------------------
      1          6           0       -4.849966    1.610199    0.000094
      2         80           0       -3.367134    3.090952    0.000014
      3          1           0       -4.610973    0.872796    0.773635
      4          1           0       -4.868768    1.131735   -0.984777
      5          1           0       -5.815783    2.081286    0.211108
      6          9           0       -1.802025    4.655002   -0.000075
 ---------------------------------------------------------------------
                    Distance matrix (angstroms):
                    1          2          3          4          5
     1  C    0.000000
     2  Hg   2.095572   0.000000
     3  H    1.095101   2.658165   0.000000
     4  H    1.095104   2.657678   1.795973   0.000000
     5  H    1.095104   2.657042   1.796790   1.796837   0.000000
     6  F    4.308222   2.212650   4.774295   4.773674   4.772722
                    6
     6  F    0.000000
 Stoichiometry    CH3FHg
 Framework group  C1[X(CH3FHg)]
 Deg. of freedom    12
 Full point group                 C1      NOp   1
 Largest Abelian subgroup         C1      NOp   1
 Largest concise Abelian subgroup C1      NOp   1
                         Standard orientation:                         
 ---------------------------------------------------------------------
 Center     Atomic      Atomic             Coordinates (Angstroms)
 Number     Number       Type             X           Y           Z
 ---------------------------------------------------------------------
      1          6           0        2.095570   -0.000347   -0.000065
      2         80           0       -0.000002    0.000070    0.000020
      3          1           0        2.447680    0.496119    0.910312
      4          1           0        2.446996    0.540431   -0.885114
      5          1           0        2.445911   -1.037580   -0.025751
      6          9           0       -2.212651   -0.000272   -0.000077
 ---------------------------------------------------------------------
 Rotational constants (GHZ):         155.3678179           3.0618755           3.0618377
 Standard basis: def2SVP (5D, 7F)
 There are    82 symmetry adapted cartesian basis functions of A   symmetry.
 There are    75 symmetry adapted basis functions of A   symmetry.
    75 basis functions,   136 primitive gaussians,    82 cartesian basis functions
    19 alpha electrons       19 beta electrons
       nuclear repulsion energy       104.5059229354 Hartrees.
 NAtoms=    6 NActive=    6 NUniq=    6 SFac= 1.00D+00 NAtFMM=   60 NAOKFM=F Big=F
 Integral buffers will be    131072 words long.
 Raffenetti 2 integral format.
 Two-electron integral symmetry is turned on.
 One-electron integrals computed using PRISM.
 PrsmSu:  requested number of processors reduced to:  13 ShMem   1 Linda.
   1 Symmetry operations used in ECPInt.
 ECPInt:  NShTT=     561 NPrTT=    1759 LenC2=     554 LenP2D=    1522.
 LDataN:  DoStor=T MaxTD1= 8 Len=  415
 NBasis=    75 RedAO= T EigKep=  8.84D-03  NBF=    75
 NBsUse=    75 1.00D-06 EigRej= -1.00D+00 NBFU=    75
 Defaulting to unpruned grid for atomic number  80.
 Initial guess from the checkpoint file:  "ch3hgf_gas_apfd_def2svp.chk"
 B after Tr=    -0.000000   -0.000000   -0.000000
         Rot=    0.731521    0.171557    0.656378    0.067916 Ang=  85.97 deg.
 ExpMin= 5.64D-02 ExpMax= 2.89D+03 ExpMxC= 4.35D+02 IAcc=2 IRadAn=         4 AccDes= 0.00D+00
 Harris functional with IExCor= 1009 and IRadAn=       4 diagonalized for initial guess.
 HarFok:  IExCor= 1009 AccDes= 0.00D+00 IRadAn=         4 IDoV= 1 UseB2=F ITyADJ=14
 ICtDFT=  3500011 ScaDFX=  1.000000  1.000000  1.000000  1.000000
 Defaulting to unpruned grid for atomic number  80.
 FoFCou: FMM=F IPFlag=           0 FMFlag=      100000 FMFlg1=           0
         NFxFlg=           0 DoJE=T BraDBF=F KetDBF=T FulRan=T
         wScrn=  0.000000 ICntrl=       500 IOpCl=  0 I1Cent=   200000004 NGrid=           0
         NMat0=    1 NMatS0=      1 NMatT0=    0 NMatD0=    1 NMtDS0=    0 NMtDT0=    0
 Petite list used in FoFCou.
 Keep R1 ints in memory in canonical form, NReq=25774275.
 Requested convergence on RMS density matrix=1.00D-08 within  32 cycles.
 Requested convergence on MAX density matrix=1.00D-06.
 Requested convergence on             energy=1.00D-06.
 No special actions if energy rises.
 Integral accuracy reduced to 1.0D-05 until final iterations.
 Defaulting to unpruned grid for atomic number  80.
 Defaulting to unpruned grid for atomic number  80.
 Defaulting to unpruned grid for atomic number  80.
 Defaulting to unpruned grid for atomic number  80.
 Defaulting to unpruned grid for atomic number  80.
 Defaulting to unpruned grid for atomic number  80.
 Defaulting to unpruned grid for atomic number  80.
 Defaulting to unpruned grid for atomic number  80.
 Defaulting to unpruned grid for atomic number  80.
 Defaulting to unpruned grid for atomic number  80.
 Defaulting to unpruned grid for atomic number  80.
 Defaulting to unpruned grid for atomic number  80.
 Defaulting to unpruned grid for atomic number  80.
 Defaulting to unpruned grid for atomic number  80.
 Defaulting to unpruned grid for atomic number  80.
 Defaulting to unpruned grid for atomic number  80.
 Defaulting to unpruned grid for atomic number  80.
 Defaulting to unpruned grid for atomic number  80.
 Defaulting to unpruned grid for atomic number  80.
 Defaulting to unpruned grid for atomic number  80.
 Defaulting to unpruned grid for atomic number  80.
 Defaulting to unpruned grid for atomic number  80.
 Defaulting to unpruned grid for atomic number  80.
 Defaulting to unpruned grid for atomic number  80.
 Initial convergence to 1.0D-05 achieved.  Increase integral accuracy.
 SCF Done:  E(RPBE1PBE) =  -292.952045207     A.U. after   13 cycles
            NFock= 13  Conv=0.32D-08     -V/T= 2.5474
 QCSCF skips out because SCF is already converged.
 PrsmSu:  requested number of processors reduced to:  13 ShMem   1 Linda.
   1 Symmetry operations used in ECPInt.
 ECPInt:  NShTT=     561 NPrTT=    1759 LenC2=     554 LenP2D=    1522.
 LDataN:  DoStor=T MaxTD1= 9 Len=  602
 Calling FoFJK, ICntrl=      2127 FMM=F ISym2X=0 I1Cent= 0 IOpClX= 0 NMat=1 NMatS=1 NMatT=0.
 Defaulting to unpruned grid for atomic number  80.
 Defaulting to unpruned grid for atomic number  80.
 Defaulting to unpruned grid for atomic number  80.
 Defaulting to unpruned grid for atomic number  80.
 Defaulting to unpruned grid for atomic number  80.
 Defaulting to unpruned grid for atomic number  80.
 Defaulting to unpruned grid for atomic number  80.
 Defaulting to unpruned grid for atomic number  80.
 Defaulting to unpruned grid for atomic number  80.
 Defaulting to unpruned grid for atomic number  80.
 Defaulting to unpruned grid for atomic number  80.
 Defaulting to unpruned grid for atomic number  80.
 Defaulting to unpruned grid for atomic number  80.
 Defaulting to unpruned grid for atomic number  80.
 Defaulting to unpruned grid for atomic number  80.
 Defaulting to unpruned grid for atomic number  80.
 Defaulting to unpruned grid for atomic number  80.
 Defaulting to unpruned grid for atomic number  80.
 Defaulting to unpruned grid for atomic number  80.
 Defaulting to unpruned grid for atomic number  80.
 Defaulting to unpruned grid for atomic number  80.
 Defaulting to unpruned grid for atomic number  80.
 Defaulting to unpruned grid for atomic number  80.
 Defaulting to unpruned grid for atomic number  80.
 ***** Axes restored to original set *****
 -------------------------------------------------------------------
 Center     Atomic                   Forces (Hartrees/Bohr)
 Number     Number              X              Y              Z
 -------------------------------------------------------------------
      1        6           0.007519781    0.007442491   -0.000025561
      2       80           0.034716337    0.034663331    0.000007653
      3        1           0.000831318   -0.000862331    0.001440955
      4        1           0.000330190   -0.000401689   -0.001791822
      5        1          -0.001345000    0.001185810    0.000367487
      6        9          -0.042052625   -0.042027612    0.000001288
 -------------------------------------------------------------------
 Cartesian Forces:  Max     0.042052625 RMS     0.018354223

 GradGradGradGradGradGradGradGradGradGradGradGradGradGradGradGradGradGrad
 Berny optimization.
 Using GEDIIS/GDIIS optimizer.
 FormGI is forming the generalized inverse of G from B-inverse, IUseBI=4.
 Internal  Forces:  Max     0.059453708 RMS     0.014658746
 Search for a local minimum.
 Step number   2 out of a maximum of   27
 All quantities printed in internal units (Hartrees-Bohrs-Radians)
 Mixed Optimization -- RFO/linear search
 Update second derivatives using D2CorX and points    1    2
 DE= -1.97D-02 DEPred=-1.68D-02 R= 1.17D+00
 TightC=F SS=  1.41D+00  RLast= 3.00D-01 DXNew= 5.0454D-01 9.0100D-01
 Trust test= 1.17D+00 RLast= 3.00D-01 DXMaxT set to 5.05D-01
 The second derivative matrix:
                          R1        R2        R3        R4        R5
           R1           0.14671
           R2          -0.00132   0.34622
           R3          -0.00132   0.00091   0.34621
           R4          -0.00134   0.00093   0.00092   0.34624
           R5          -0.00809   0.00009   0.00010   0.00005   0.02617
           A1          -0.00000  -0.00010  -0.00010  -0.00010  -0.00102
           A2           0.00029  -0.00025  -0.00025  -0.00025  -0.00057
           A3           0.00115  -0.00069  -0.00069  -0.00070   0.00100
           A4           0.00036  -0.00009  -0.00009  -0.00009   0.00166
           A5          -0.00080   0.00051   0.00051   0.00052  -0.00038
           A6          -0.00099   0.00061   0.00061   0.00061  -0.00076
           A7           0.00005  -0.00002  -0.00002  -0.00002   0.00010
           A8          -0.00000   0.00000   0.00000   0.00000  -0.00000
           D1           0.00106  -0.00052  -0.00052  -0.00052   0.00215
           D2          -0.00085   0.00042   0.00042   0.00042  -0.00172
           D3           0.00116  -0.00057  -0.00057  -0.00057   0.00235
           D4           0.00201  -0.00098  -0.00098  -0.00099   0.00407
                          A1        A2        A3        A4        A5
           A1           0.15999
           A2           0.00002   0.16006
           A3           0.00009   0.00020   0.16050
           A4           0.00004   0.00004   0.00004   0.15996
           A5          -0.00006  -0.00014  -0.00038  -0.00004   0.16028
           A6          -0.00008  -0.00017  -0.00044  -0.00003   0.00033
           A7           0.00000   0.00001   0.00002  -0.00000  -0.00001
           A8          -0.00000  -0.00000  -0.00000   0.00000   0.00000
           D1           0.00009   0.00016   0.00035  -0.00001  -0.00027
           D2          -0.00008  -0.00013  -0.00028   0.00001   0.00022
           D3           0.00010   0.00018   0.00038  -0.00002  -0.00030
           D4           0.00018   0.00031   0.00066  -0.00003  -0.00052
                          A6        A7        A8        D1        D2
           A6           0.16039
           A7          -0.00001   0.00230
           A8           0.00000  -0.00000   0.00230
           D1          -0.00031   0.00001  -0.00000   0.00251
           D2           0.00025  -0.00001   0.00000  -0.00017   0.00243
           D3          -0.00034   0.00001  -0.00000   0.00023  -0.00018
           D4          -0.00059   0.00002  -0.00000   0.00039  -0.00032
                          D3        D4
           D3           0.00255
           D4           0.00043   0.00305
 ITU=  1  0
 Use linear search instead of GDIIS.
 Linear search step of   0.505 exceeds DXMaxT=   0.505 but not scaled.
 Quartic linear search produced a step of  1.68412.
 Iteration  1 RMS(Cart)=  0.06082743 RMS(Int)=  0.07274928
 Iteration  2 RMS(Cart)=  0.04428593 RMS(Int)=  0.02424222
 Iteration  3 RMS(Cart)=  0.02212992 RMS(Int)=  0.00006948
 Iteration  4 RMS(Cart)=  0.00000010 RMS(Int)=  0.00006948
 Variable       Old X    -DE/DX   Delta X   Delta X   Delta X     New X
                                 (Linear)    (Quad)   (Total)
    R1        3.96006  -0.01039  -0.06892   0.00000  -0.06892   3.89114
    R2        2.06944   0.00178   0.00841   0.00000   0.00841   2.07785
    R3        2.06945   0.00178   0.00840   0.00000   0.00840   2.07785
    R4        2.06945   0.00177   0.00841   0.00000   0.00841   2.07785
    R5        4.18130  -0.05945  -0.49995   0.00000  -0.49995   3.68135
    A1        1.89801  -0.00016  -0.00660   0.00000  -0.00654   1.89147
    A2        1.89741  -0.00019  -0.00746   0.00000  -0.00742   1.88999
    A3        1.89664  -0.00028  -0.00874   0.00000  -0.00873   1.88791
    A4        1.92283   0.00012   0.00593   0.00000   0.00575   1.92858
    A5        1.92413   0.00024   0.00810   0.00000   0.00799   1.93212
    A6        1.92421   0.00025   0.00822   0.00000   0.00812   1.93232
    A7        3.14124   0.00001  -0.00053   0.00000  -0.00053   3.14071
    A8        3.14179   0.00000   0.00003   0.00000   0.00003   3.14182
    D1        2.07825  -0.00024  -0.00906   0.00000  -0.00910   2.06915
    D2       -2.07855   0.00022   0.00855   0.00000   0.00861  -2.06994
    D3        2.07786  -0.00026  -0.00954   0.00000  -0.00960   2.06826
    D4       -2.12678  -0.00048  -0.01810   0.00000  -0.01821  -2.14498
         Item               Value     Threshold  Converged?
 Maximum Force            0.059454     0.000450     NO 
 RMS     Force            0.014659     0.000300     NO 
 Maximum Displacement     0.332322     0.001800     NO 
 RMS     Displacement     0.125814     0.001200     NO 
 Predicted change in Energy=-2.703089D-02
 GradGradGradGradGradGradGradGradGradGradGradGradGradGradGradGradGradGrad

                          Input orientation:                          
 ---------------------------------------------------------------------
 Center     Atomic      Atomic             Coordinates (Angstroms)
 Number     Number       Type             X           Y           Z
 ---------------------------------------------------------------------
      1          6           0       -4.812445    1.647658    0.000225
      2         80           0       -3.355272    3.102495   -0.000040
      3          1           0       -4.566244    0.910669    0.778197
      4          1           0       -4.825008    1.171711   -0.990899
      5          1           0       -5.777798    2.129319    0.212627
      6          9           0       -1.977882    4.480117   -0.000110
 ---------------------------------------------------------------------
                    Distance matrix (angstroms):
                    1          2          3          4          5
     1  C    0.000000
     2  Hg   2.059102   0.000000
     3  H    1.099549   2.622252   0.000000
     4  H    1.099549   2.621040   1.806876   0.000000
     5  H    1.099553   2.619338   1.809098   1.809225   0.000000
     6  F    4.007190   1.948088   4.477314   4.475862   4.473351
                    6
     6  F    0.000000
 Stoichiometry    CH3FHg
 Framework group  C1[X(CH3FHg)]
 Deg. of freedom    12
 Full point group                 C1      NOp   1
 Largest Abelian subgroup         C1      NOp   1
 Largest concise Abelian subgroup C1      NOp   1
                         Standard orientation:                         
 ---------------------------------------------------------------------
 Center     Atomic      Atomic             Coordinates (Angstroms)
 Number     Number       Type             X           Y           Z
 ---------------------------------------------------------------------
      1          6           0        2.038351   -0.000803   -0.000068
      2         80           0       -0.020751    0.000161    0.000028
      3          1           0        2.385211    0.499697    0.915462
      4          1           0        2.383603    0.543495   -0.890882
      5          1           0        2.380731   -1.045381   -0.025574
      6          9           0       -1.968839   -0.000649   -0.000096
 ---------------------------------------------------------------------
 Rotational constants (GHZ):         153.3350589           3.5592880           3.5591482
 Standard basis: def2SVP (5D, 7F)
 There are    82 symmetry adapted cartesian basis functions of A   symmetry.
 There are    75 symmetry adapted basis functions of A   symmetry.
    75 basis functions,   136 primitive gaussians,    82 cartesian basis functions
    19 alpha electrons       19 beta electrons
       nuclear repulsion energy       111.7130613173 Hartrees.
 NAtoms=    6 NActive=    6 NUniq=    6 SFac= 1.00D+00 NAtFMM=   60 NAOKFM=F Big=F
 Integral buffers will be    131072 words long.
 Raffenetti 2 integral format.
 Two-electron integral symmetry is turned on.
 One-electron integrals computed using PRISM.
 PrsmSu:  requested number of processors reduced to:  13 ShMem   1 Linda.
   1 Symmetry operations used in ECPInt.
 ECPInt:  NShTT=     561 NPrTT=    1759 LenC2=     560 LenP2D=    1549.
 LDataN:  DoStor=T MaxTD1= 8 Len=  415
 NBasis=    75 RedAO= T EigKep=  7.72D-03  NBF=    75
 NBsUse=    75 1.00D-06 EigRej= -1.00D+00 NBFU=    75
 Defaulting to unpruned grid for atomic number  80.
 Initial guess from the checkpoint file:  "ch3hgf_gas_apfd_def2svp.chk"
 B after Tr=    -0.000000   -0.000000   -0.000000
         Rot=    1.000000    0.000230   -0.000009    0.000017 Ang=   0.03 deg.
 ExpMin= 5.64D-02 ExpMax= 2.89D+03 ExpMxC= 4.35D+02 IAcc=2 IRadAn=         4 AccDes= 0.00D+00
 Harris functional with IExCor= 1009 and IRadAn=       4 diagonalized for initial guess.
 HarFok:  IExCor= 1009 AccDes= 0.00D+00 IRadAn=         4 IDoV= 1 UseB2=F ITyADJ=14
 ICtDFT=  3500011 ScaDFX=  1.000000  1.000000  1.000000  1.000000
 Defaulting to unpruned grid for atomic number  80.
 FoFCou: FMM=F IPFlag=           0 FMFlag=      100000 FMFlg1=           0
         NFxFlg=           0 DoJE=T BraDBF=F KetDBF=T FulRan=T
         wScrn=  0.000000 ICntrl=       500 IOpCl=  0 I1Cent=   200000004 NGrid=           0
         NMat0=    1 NMatS0=      1 NMatT0=    0 NMatD0=    1 NMtDS0=    0 NMtDT0=    0
 Petite list used in FoFCou.
 Keep R1 ints in memory in canonical form, NReq=25774275.
 Requested convergence on RMS density matrix=1.00D-08 within  32 cycles.
 Requested convergence on MAX density matrix=1.00D-06.
 Requested convergence on             energy=1.00D-06.
 No special actions if energy rises.
 Integral accuracy reduced to 1.0D-05 until final iterations.
 Defaulting to unpruned grid for atomic number  80.
 Defaulting to unpruned grid for atomic number  80.
 Defaulting to unpruned grid for atomic number  80.
 Defaulting to unpruned grid for atomic number  80.
 Defaulting to unpruned grid for atomic number  80.
 Defaulting to unpruned grid for atomic number  80.
 Defaulting to unpruned grid for atomic number  80.
 Defaulting to unpruned grid for atomic number  80.
 Defaulting to unpruned grid for atomic number  80.
 Defaulting to unpruned grid for atomic number  80.
 Defaulting to unpruned grid for atomic number  80.
 Defaulting to unpruned grid for atomic number  80.
 Defaulting to unpruned grid for atomic number  80.
 Defaulting to unpruned grid for atomic number  80.
 Defaulting to unpruned grid for atomic number  80.
 Defaulting to unpruned grid for atomic number  80.
 Defaulting to unpruned grid for atomic number  80.
 Defaulting to unpruned grid for atomic number  80.
 Defaulting to unpruned grid for atomic number  80.
 Defaulting to unpruned grid for atomic number  80.
 Defaulting to unpruned grid for atomic number  80.
 Defaulting to unpruned grid for atomic number  80.
 Defaulting to unpruned grid for atomic number  80.
 Defaulting to unpruned grid for atomic number  80.
 Initial convergence to 1.0D-05 achieved.  Increase integral accuracy.
 SCF Done:  E(RPBE1PBE) =  -292.970025172     A.U. after   14 cycles
            NFock= 14  Conv=0.22D-08     -V/T= 2.5462
 QCSCF skips out because SCF is already converged.
 PrsmSu:  requested number of processors reduced to:  13 ShMem   1 Linda.
   1 Symmetry operations used in ECPInt.
 ECPInt:  NShTT=     561 NPrTT=    1759 LenC2=     560 LenP2D=    1549.
 LDataN:  DoStor=T MaxTD1= 9 Len=  602
 Calling FoFJK, ICntrl=      2127 FMM=F ISym2X=0 I1Cent= 0 IOpClX= 0 NMat=1 NMatS=1 NMatT=0.
 Defaulting to unpruned grid for atomic number  80.
 Defaulting to unpruned grid for atomic number  80.
 Defaulting to unpruned grid for atomic number  80.
 Defaulting to unpruned grid for atomic number  80.
 Defaulting to unpruned grid for atomic number  80.
 Defaulting to unpruned grid for atomic number  80.
 Defaulting to unpruned grid for atomic number  80.
 Defaulting to unpruned grid for atomic number  80.
 Defaulting to unpruned grid for atomic number  80.
 Defaulting to unpruned grid for atomic number  80.
 Defaulting to unpruned grid for atomic number  80.
 Defaulting to unpruned grid for atomic number  80.
 Defaulting to unpruned grid for atomic number  80.
 Defaulting to unpruned grid for atomic number  80.
 Defaulting to unpruned grid for atomic number  80.
 Defaulting to unpruned grid for atomic number  80.
 Defaulting to unpruned grid for atomic number  80.
 Defaulting to unpruned grid for atomic number  80.
 Defaulting to unpruned grid for atomic number  80.
 Defaulting to unpruned grid for atomic number  80.
 Defaulting to unpruned grid for atomic number  80.
 Defaulting to unpruned grid for atomic number  80.
 Defaulting to unpruned grid for atomic number  80.
 Defaulting to unpruned grid for atomic number  80.
 ***** Axes restored to original set *****
 -------------------------------------------------------------------
 Center     Atomic                   Forces (Hartrees/Bohr)
 Number     Number              X              Y              Z
 -------------------------------------------------------------------
      1        6           0.005723709    0.005504291   -0.000065483
      2       80          -0.004817184   -0.004901753    0.000034653
      3        1          -0.002287545   -0.000492173   -0.001148948
      4        1          -0.001960681   -0.000937690    0.001568398
      5        1          -0.000328483   -0.002829928   -0.000380926
      6        9           0.003670184    0.003657253   -0.000007694
 -------------------------------------------------------------------
 Cartesian Forces:  Max     0.005723709 RMS     0.002975659

 GradGradGradGradGradGradGradGradGradGradGradGradGradGradGradGradGradGrad
 Berny optimization.
 Using GEDIIS/GDIIS optimizer.
 FormGI is forming the generalized inverse of G from B-inverse, IUseBI=4.
 Internal  Forces:  Max     0.005181280 RMS     0.001724673
 Search for a local minimum.
 Step number   3 out of a maximum of   27
 All quantities printed in internal units (Hartrees-Bohrs-Radians)
 Mixed Optimization -- RFO/linear search
 Update second derivatives using D2CorX and points    2    3
 The second derivative matrix:
                          R1        R2        R3        R4        R5
           R1           0.14349
           R2           0.00063   0.34514
           R3           0.00063  -0.00016   0.34513
           R4           0.00063  -0.00016  -0.00016   0.34514
           R5          -0.00236   0.00017   0.00018   0.00014   0.12927
           A1          -0.00033   0.00009   0.00009   0.00009  -0.00083
           A2          -0.00028   0.00007   0.00007   0.00007  -0.00024
           A3          -0.00007   0.00000   0.00000   0.00000   0.00166
           A4           0.00040  -0.00011  -0.00011  -0.00011   0.00165
           A5           0.00014  -0.00002  -0.00002  -0.00002  -0.00087
           A6           0.00009  -0.00001  -0.00001  -0.00001  -0.00131
           A7           0.00001  -0.00000  -0.00000  -0.00000   0.00005
           A8           0.00000  -0.00000  -0.00000  -0.00000   0.00001
           D1           0.00034  -0.00011  -0.00011  -0.00011   0.00257
           D2          -0.00028   0.00009   0.00009   0.00009  -0.00212
           D3           0.00038  -0.00012  -0.00012  -0.00012   0.00288
           D4           0.00066  -0.00021  -0.00021  -0.00021   0.00500
                          A1        A2        A3        A4        A5
           A1           0.15996
           A2          -0.00004   0.15997
           A3          -0.00003  -0.00001   0.16006
           A4           0.00004   0.00005   0.00005   0.15996
           A5           0.00003   0.00001  -0.00004  -0.00005   0.16002
           A6           0.00003   0.00001  -0.00005  -0.00005   0.00003
           A7           0.00000   0.00000   0.00000  -0.00000  -0.00000
           A8           0.00000   0.00000   0.00000  -0.00000  -0.00000
           D1           0.00003   0.00004   0.00009  -0.00001  -0.00007
           D2          -0.00002  -0.00003  -0.00007   0.00001   0.00006
           D3           0.00003   0.00005   0.00010  -0.00001  -0.00008
           D4           0.00005   0.00008   0.00017  -0.00001  -0.00014
                          A6        A7        A8        D1        D2
           A6           0.16004
           A7          -0.00000   0.00230
           A8          -0.00000   0.00000   0.00230
           D1          -0.00008   0.00000   0.00000   0.00235
           D2           0.00007  -0.00000  -0.00000  -0.00004   0.00234
           D3          -0.00009   0.00000   0.00000   0.00006  -0.00005
           D4          -0.00016   0.00000   0.00000   0.00011  -0.00009
                          D3        D4
           D3           0.00237
           D4           0.00012   0.00250
 ITU=  0  1  0
 Use linear search instead of GDIIS.
     Eigenvalues ---    0.00230   0.00230   0.04966   0.05618   0.08875
     Eigenvalues ---    0.12898   0.14386   0.16000   0.16043   0.34482
     Eigenvalues ---    0.34530   0.34530
 RFO step:  Lambda=-2.63961858D-04 EMin= 2.29999994D-03
 Quartic linear search produced a step of -0.04442.
 Iteration  1 RMS(Cart)=  0.01234881 RMS(Int)=  0.00025377
 Iteration  2 RMS(Cart)=  0.00015624 RMS(Int)=  0.00017693
 Iteration  3 RMS(Cart)=  0.00000002 RMS(Int)=  0.00017693
 Variable       Old X    -DE/DX   Delta X   Delta X   Delta X     New X
                                 (Linear)    (Quad)   (Total)
    R1        3.89114  -0.00169   0.00306  -0.01679  -0.01373   3.87741
    R2        2.07785  -0.00100  -0.00037  -0.00236  -0.00273   2.07512
    R3        2.07785  -0.00099  -0.00037  -0.00233  -0.00270   2.07514
    R4        2.07785  -0.00102  -0.00037  -0.00244  -0.00281   2.07504
    R5        3.68135   0.00518   0.02221  -0.00250   0.01970   3.70106
    A1        1.89147   0.00045   0.00029   0.01374   0.01416   1.90563
    A2        1.88999   0.00086   0.00033   0.01495   0.01537   1.90536
    A3        1.88791   0.00195   0.00039   0.01654   0.01693   1.90484
    A4        1.92858   0.00006  -0.00026  -0.01225  -0.01297   1.91561
    A5        1.93212  -0.00147  -0.00035  -0.01536  -0.01600   1.91613
    A6        1.93232  -0.00170  -0.00036  -0.01556  -0.01619   1.91614
    A7        3.14071   0.00004   0.00002   0.01377   0.01380   3.15450
    A8        3.14182   0.00001  -0.00000   0.00306   0.00306   3.14487
    D1        2.06915   0.00110   0.00040   0.01864   0.01893   2.08808
    D2       -2.06994  -0.00089  -0.00038  -0.01788  -0.01813  -2.08807
    D3        2.06826   0.00124   0.00043   0.01922   0.01949   2.08775
    D4       -2.14498   0.00213   0.00081   0.03710   0.03762  -2.10736
         Item               Value     Threshold  Converged?
 Maximum Force            0.005181     0.000450     NO 
 RMS     Force            0.001725     0.000300     NO 
 Maximum Displacement     0.029057     0.001800     NO 
 RMS     Displacement     0.012382     0.001200     NO 
 Predicted change in Energy=-2.111156D-04
 GradGradGradGradGradGradGradGradGradGradGradGradGradGradGradGradGradGrad

                          Input orientation:                          
 ---------------------------------------------------------------------
 Center     Atomic      Atomic             Coordinates (Angstroms)
 Number     Number       Type             X           Y           Z
 ---------------------------------------------------------------------
      1          6           0       -4.806793    1.654064    0.000201
      2         80           0       -3.361222    3.110210    0.002884
      3          1           0       -4.571675    0.910755    0.773534
      4          1           0       -4.829231    1.170072   -0.985250
      5          1           0       -5.781435    2.113942    0.210744
      6          9           0       -1.964293    4.482926   -0.002112
 ---------------------------------------------------------------------
                    Distance matrix (angstroms):
                    1          2          3          4          5
     1  C    0.000000
     2  Hg   2.051839   0.000000
     3  H    1.098104   2.626157   0.000000
     4  H    1.098119   2.625946   1.796357   0.000000
     5  H    1.098064   2.625488   1.796639   1.796660   0.000000
     6  F    4.010269   1.958515   4.490040   4.488811   4.497550
                    6
     6  F    0.000000
 Stoichiometry    CH3FHg
 Framework group  C1[X(CH3FHg)]
 Deg. of freedom    12
 Full point group                 C1      NOp   1
 Largest Abelian subgroup         C1      NOp   1
 Largest concise Abelian subgroup C1      NOp   1
                         Standard orientation:                         
 ---------------------------------------------------------------------
 Center     Atomic      Atomic             Coordinates (Angstroms)
 Number     Number       Type             X           Y           Z
 ---------------------------------------------------------------------
      1          6           0        2.032195    0.009811   -0.000133
      2         80           0       -0.019607   -0.002450    0.000036
      3          1           0        2.390476    0.454356    0.937868
      4          1           0        2.389161    0.603318   -0.852301
      5          1           0        2.398378   -1.021810   -0.086232
      6          9           0       -1.978074    0.011253   -0.000159
 ---------------------------------------------------------------------
 Rotational constants (GHZ):         155.1256607           3.5467628           3.5466206
 Standard basis: def2SVP (5D, 7F)
 There are    82 symmetry adapted cartesian basis functions of A   symmetry.
 There are    75 symmetry adapted basis functions of A   symmetry.
    75 basis functions,   136 primitive gaussians,    82 cartesian basis functions
    19 alpha electrons       19 beta electrons
       nuclear repulsion energy       111.5388804828 Hartrees.
 NAtoms=    6 NActive=    6 NUniq=    6 SFac= 1.00D+00 NAtFMM=   60 NAOKFM=F Big=F
 Integral buffers will be    131072 words long.
 Raffenetti 2 integral format.
 Two-electron integral symmetry is turned on.
 One-electron integrals computed using PRISM.
 PrsmSu:  requested number of processors reduced to:  13 ShMem   1 Linda.
   1 Symmetry operations used in ECPInt.
 ECPInt:  NShTT=     561 NPrTT=    1759 LenC2=     560 LenP2D=    1547.
 LDataN:  DoStor=T MaxTD1= 8 Len=  415
 NBasis=    75 RedAO= T EigKep=  7.76D-03  NBF=    75
 NBsUse=    75 1.00D-06 EigRej= -1.00D+00 NBFU=    75
 Defaulting to unpruned grid for atomic number  80.
 Initial guess from the checkpoint file:  "ch3hgf_gas_apfd_def2svp.chk"
 B after Tr=     0.000000    0.000000    0.000000
         Rot=    0.999567   -0.029410    0.000012   -0.000169 Ang=  -3.37 deg.
 ExpMin= 5.64D-02 ExpMax= 2.89D+03 ExpMxC= 4.35D+02 IAcc=2 IRadAn=         4 AccDes= 0.00D+00
 Harris functional with IExCor= 1009 and IRadAn=       4 diagonalized for initial guess.
 HarFok:  IExCor= 1009 AccDes= 0.00D+00 IRadAn=         4 IDoV= 1 UseB2=F ITyADJ=14
 ICtDFT=  3500011 ScaDFX=  1.000000  1.000000  1.000000  1.000000
 Defaulting to unpruned grid for atomic number  80.
 FoFCou: FMM=F IPFlag=           0 FMFlag=      100000 FMFlg1=           0
         NFxFlg=           0 DoJE=T BraDBF=F KetDBF=T FulRan=T
         wScrn=  0.000000 ICntrl=       500 IOpCl=  0 I1Cent=   200000004 NGrid=           0
         NMat0=    1 NMatS0=      1 NMatT0=    0 NMatD0=    1 NMtDS0=    0 NMtDT0=    0
 Petite list used in FoFCou.
 Keep R1 ints in memory in canonical form, NReq=25774275.
 Requested convergence on RMS density matrix=1.00D-08 within  32 cycles.
 Requested convergence on MAX density matrix=1.00D-06.
 Requested convergence on             energy=1.00D-06.
 No special actions if energy rises.
 Integral accuracy reduced to 1.0D-05 until final iterations.
 Defaulting to unpruned grid for atomic number  80.
 Defaulting to unpruned grid for atomic number  80.
 Defaulting to unpruned grid for atomic number  80.
 Defaulting to unpruned grid for atomic number  80.
 Defaulting to unpruned grid for atomic number  80.
 Defaulting to unpruned grid for atomic number  80.
 Defaulting to unpruned grid for atomic number  80.
 Defaulting to unpruned grid for atomic number  80.
 Defaulting to unpruned grid for atomic number  80.
 Defaulting to unpruned grid for atomic number  80.
 Defaulting to unpruned grid for atomic number  80.
 Defaulting to unpruned grid for atomic number  80.
 Defaulting to unpruned grid for atomic number  80.
 Defaulting to unpruned grid for atomic number  80.
 Defaulting to unpruned grid for atomic number  80.
 Defaulting to unpruned grid for atomic number  80.
 Defaulting to unpruned grid for atomic number  80.
 Defaulting to unpruned grid for atomic number  80.
 Defaulting to unpruned grid for atomic number  80.
 Defaulting to unpruned grid for atomic number  80.
 Defaulting to unpruned grid for atomic number  80.
 Defaulting to unpruned grid for atomic number  80.
 Defaulting to unpruned grid for atomic number  80.
 Defaulting to unpruned grid for atomic number  80.
 Initial convergence to 1.0D-05 achieved.  Increase integral accuracy.
 SCF Done:  E(RPBE1PBE) =  -292.970255566     A.U. after   11 cycles
            NFock= 11  Conv=0.89D-08     -V/T= 2.5462
 QCSCF skips out because SCF is already converged.
 PrsmSu:  requested number of processors reduced to:  13 ShMem   1 Linda.
   1 Symmetry operations used in ECPInt.
 ECPInt:  NShTT=     561 NPrTT=    1759 LenC2=     560 LenP2D=    1547.
 LDataN:  DoStor=T MaxTD1= 9 Len=  602
 Calling FoFJK, ICntrl=      2127 FMM=F ISym2X=0 I1Cent= 0 IOpClX= 0 NMat=1 NMatS=1 NMatT=0.
 Defaulting to unpruned grid for atomic number  80.
 Defaulting to unpruned grid for atomic number  80.
 Defaulting to unpruned grid for atomic number  80.
 Defaulting to unpruned grid for atomic number  80.
 Defaulting to unpruned grid for atomic number  80.
 Defaulting to unpruned grid for atomic number  80.
 Defaulting to unpruned grid for atomic number  80.
 Defaulting to unpruned grid for atomic number  80.
 Defaulting to unpruned grid for atomic number  80.
 Defaulting to unpruned grid for atomic number  80.
 Defaulting to unpruned grid for atomic number  80.
 Defaulting to unpruned grid for atomic number  80.
 Defaulting to unpruned grid for atomic number  80.
 Defaulting to unpruned grid for atomic number  80.
 Defaulting to unpruned grid for atomic number  80.
 Defaulting to unpruned grid for atomic number  80.
 Defaulting to unpruned grid for atomic number  80.
 Defaulting to unpruned grid for atomic number  80.
 Defaulting to unpruned grid for atomic number  80.
 Defaulting to unpruned grid for atomic number  80.
 Defaulting to unpruned grid for atomic number  80.
 Defaulting to unpruned grid for atomic number  80.
 Defaulting to unpruned grid for atomic number  80.
 Defaulting to unpruned grid for atomic number  80.
 ***** Axes restored to original set *****
 -------------------------------------------------------------------
 Center     Atomic                   Forces (Hartrees/Bohr)
 Number     Number              X              Y              Z
 -------------------------------------------------------------------
      1        6           0.002178771    0.002953567    0.000158006
      2       80           0.000273912   -0.001098376   -0.000289222
      3        1          -0.000711264   -0.000662684    0.000012835
      4        1          -0.000704559   -0.000650531    0.000004087
      5        1          -0.000821547   -0.000931064   -0.000016800
      6        9          -0.000215313    0.000389087    0.000131094
 -------------------------------------------------------------------
 Cartesian Forces:  Max     0.002953567 RMS     0.001013315

 GradGradGradGradGradGradGradGradGradGradGradGradGradGradGradGradGradGrad
 Berny optimization.
 Using GEDIIS/GDIIS optimizer.
 FormGI is forming the generalized inverse of G from B-inverse, IUseBI=4.
 Internal  Forces:  Max     0.001648897 RMS     0.000616048
 Search for a local minimum.
 Step number   4 out of a maximum of   27
 All quantities printed in internal units (Hartrees-Bohrs-Radians)
 Mixed Optimization -- En-DIIS/RFO-DIIS
 Update second derivatives using D2CorX and points    2    3    4
 DE= -2.30D-04 DEPred=-2.11D-04 R= 1.09D+00
 TightC=F SS=  1.41D+00  RLast= 6.85D-02 DXNew= 8.4853D-01 2.0548D-01
 Trust test= 1.09D+00 RLast= 6.85D-02 DXMaxT set to 5.05D-01
 The second derivative matrix:
                          R1        R2        R3        R4        R5
           R1           0.13640
           R2           0.00057   0.34816
           R3           0.00055   0.00281   0.34805
           R4           0.00066   0.00305   0.00299   0.34854
           R5          -0.00705  -0.01292  -0.01270  -0.01367   0.18485
           A1           0.01281   0.00513   0.00509   0.00527  -0.01236
           A2           0.01268   0.00428   0.00425   0.00437  -0.00832
           A3           0.01333   0.00368   0.00366   0.00373  -0.00376
           A4          -0.01312  -0.00620  -0.00613  -0.00639   0.01737
           A5          -0.01278  -0.00380  -0.00378  -0.00386   0.00534
           A6          -0.01220  -0.00306  -0.00304  -0.00308   0.00227
           A7          -0.00775  -0.00742  -0.00732  -0.00778   0.02585
           A8          -0.00027  -0.00028  -0.00028  -0.00030   0.00102
           D1          -0.00273  -0.00332  -0.00327  -0.00348   0.01402
           D2           0.00146   0.00201   0.00198   0.00211  -0.00906
           D3          -0.00255  -0.00323  -0.00319  -0.00338   0.01399
           D4          -0.00401  -0.00524  -0.00517  -0.00549   0.02305
                          A1        A2        A3        A4        A5
           A1           0.14419
           A2          -0.01685   0.14233
           A3          -0.01849  -0.01914   0.13950
           A4           0.01481   0.01614   0.01800   0.14653
           A5           0.01749   0.01818   0.01954  -0.01693   0.14139
           A6           0.01751   0.01801   0.01921  -0.01717  -0.01834
           A7           0.00198   0.00382   0.00558   0.00014  -0.00484
           A8           0.00004   0.00011   0.00017   0.00005  -0.00015
           D1           0.00039   0.00121   0.00200   0.00056  -0.00168
           D2          -0.00007  -0.00057  -0.00105  -0.00051   0.00086
           D3           0.00032   0.00111   0.00188   0.00061  -0.00157
           D4           0.00038   0.00168   0.00293   0.00112  -0.00243
                          A6        A7        A8        D1        D2
           A6           0.14205
           A7          -0.00592   0.01201
           A8          -0.00019   0.00039   0.00232
           D1          -0.00218   0.00449   0.00018   0.00441
           D2           0.00117  -0.00279  -0.00011  -0.00132   0.00312
           D3          -0.00206   0.00438   0.00018   0.00207  -0.00129
           D4          -0.00323   0.00717   0.00029   0.00338  -0.00211
                          D3        D4
           D3           0.00432
           D4           0.00331   0.00772
 ITU=  1  0  1  0
 Use linear search instead of GDIIS.
     Eigenvalues ---    0.00226   0.00233   0.03384   0.05318   0.08690
     Eigenvalues ---    0.13320   0.15341   0.15993   0.18790   0.34529
     Eigenvalues ---    0.34530   0.35799
 RFO step:  Lambda=-1.30451232D-03 EMin= 2.26073988D-03
 Quartic linear search produced a step of  0.27363.
 Maximum step size (   0.505) exceeded in Quadratic search.
    -- Step size scaled by   0.890
 Iteration  1 RMS(Cart)=  0.09775222 RMS(Int)=  0.06919051
 Iteration  2 RMS(Cart)=  0.09814775 RMS(Int)=  0.02206970
 Iteration  3 RMS(Cart)=  0.04491228 RMS(Int)=  0.00295181
 Iteration  4 RMS(Cart)=  0.00157665 RMS(Int)=  0.00255054
 Iteration  5 RMS(Cart)=  0.00000035 RMS(Int)=  0.00255054
 Variable       Old X    -DE/DX   Delta X   Delta X   Delta X     New X
                                 (Linear)    (Quad)   (Total)
    R1        3.87741  -0.00046  -0.00376  -0.04870  -0.05245   3.82496
    R2        2.07512   0.00031  -0.00075  -0.00722  -0.00797   2.06714
    R3        2.07514   0.00030  -0.00074  -0.00716  -0.00790   2.06724
    R4        2.07504   0.00034  -0.00077  -0.00739  -0.00816   2.06688
    R5        3.70106   0.00012   0.00539   0.04223   0.04763   3.74868
    A1        1.90563   0.00014   0.00388   0.04824   0.05405   1.95969
    A2        1.90536   0.00022   0.00421   0.05213   0.05758   1.96294
    A3        1.90484   0.00100   0.00463   0.06107   0.06524   1.97008
    A4        1.91561   0.00000  -0.00355  -0.04582  -0.05607   1.85954
    A5        1.91613  -0.00066  -0.00438  -0.05658  -0.06458   1.85155
    A6        1.91614  -0.00070  -0.00443  -0.05719  -0.06487   1.85127
    A7        3.15450  -0.00165   0.00378  -0.48213  -0.47835   2.67615
    A8        3.14487  -0.00006   0.00084  -0.01270  -0.01186   3.13301
    D1        2.08808   0.00031   0.00518   0.06313   0.06613   2.15421
    D2       -2.08807  -0.00039  -0.00496  -0.06213  -0.06506  -2.15314
    D3        2.08775   0.00047   0.00533   0.06650   0.06927   2.15702
    D4       -2.10736   0.00086   0.01029   0.12864   0.13433  -1.97303
         Item               Value     Threshold  Converged?
 Maximum Force            0.001649     0.000450     NO 
 RMS     Force            0.000616     0.000300     NO 
 Maximum Displacement     0.469169     0.001800     NO 
 RMS     Displacement     0.228172     0.001200     NO 
 Predicted change in Energy=-8.301891D-04
 GradGradGradGradGradGradGradGradGradGradGradGradGradGradGradGradGradGrad

                          Input orientation:                          
 ---------------------------------------------------------------------
 Center     Atomic      Atomic             Coordinates (Angstroms)
 Number     Number       Type             X           Y           Z
 ---------------------------------------------------------------------
      1          6           0       -4.750213    1.676272   -0.005936
      2         80           0       -3.112949    2.864281   -0.075964
      3          1           0       -4.670790    0.905691    0.766387
      4          1           0       -4.928198    1.153611   -0.950310
      5          1           0       -5.668189    2.229753    0.211465
      6          9           0       -2.184309    4.612361    0.054357
 ---------------------------------------------------------------------
                    Distance matrix (angstroms):
                    1          2          3          4          5
     1  C    0.000000
     2  Hg   2.024082   0.000000
     3  H    1.093886   2.640550   0.000000
     4  H    1.093936   2.643105   1.753503   0.000000
     5  H    1.093748   2.648489   1.748109   1.747968   0.000000
     6  F    3.899759   1.983718   4.519843   4.527829   4.223615
                    6
     6  F    0.000000
 Stoichiometry    CH3FHg
 Framework group  C1[X(CH3FHg)]
 Deg. of freedom    12
 Full point group                 C1      NOp   1
 Largest Abelian subgroup         C1      NOp   1
 Largest concise Abelian subgroup C1      NOp   1
                         Standard orientation:                         
 ---------------------------------------------------------------------
 Center     Atomic      Atomic             Coordinates (Angstroms)
 Number     Number       Type             X           Y           Z
 ---------------------------------------------------------------------
      1          6           0        1.959265   -0.347459   -0.000118
      2         80           0       -0.017515    0.087566   -0.000012
      3          1           0        2.469940    0.043078    0.884913
      4          1           0        2.478795    0.068349   -0.868386
      5          1           0        2.157975   -1.422904   -0.014787
      6          9           0       -1.940126   -0.401008   -0.000008
 ---------------------------------------------------------------------
 Rotational constants (GHZ):          53.4597973           3.7179897           3.5519372
 Standard basis: def2SVP (5D, 7F)
 There are    82 symmetry adapted cartesian basis functions of A   symmetry.
 There are    75 symmetry adapted basis functions of A   symmetry.
    75 basis functions,   136 primitive gaussians,    82 cartesian basis functions
    19 alpha electrons       19 beta electrons
       nuclear repulsion energy       111.5739089912 Hartrees.
 NAtoms=    6 NActive=    6 NUniq=    6 SFac= 1.00D+00 NAtFMM=   60 NAOKFM=F Big=F
 Integral buffers will be    131072 words long.
 Raffenetti 2 integral format.
 Two-electron integral symmetry is turned on.
 One-electron integrals computed using PRISM.
 PrsmSu:  requested number of processors reduced to:  13 ShMem   1 Linda.
   1 Symmetry operations used in ECPInt.
 ECPInt:  NShTT=     561 NPrTT=    1759 LenC2=     560 LenP2D=    1552.
 LDataN:  DoStor=T MaxTD1= 8 Len=  415
 NBasis=    75 RedAO= T EigKep=  8.58D-03  NBF=    75
 NBsUse=    75 1.00D-06 EigRej= -1.00D+00 NBFU=    75
 Defaulting to unpruned grid for atomic number  80.
 Initial guess from the checkpoint file:  "ch3hgf_gas_apfd_def2svp.chk"
 B after Tr=     0.000000   -0.000000   -0.000000
         Rot=    0.999366    0.035289   -0.000108    0.004660 Ang=   4.08 deg.
 ExpMin= 5.64D-02 ExpMax= 2.89D+03 ExpMxC= 4.35D+02 IAcc=2 IRadAn=         4 AccDes= 0.00D+00
 Harris functional with IExCor= 1009 and IRadAn=       4 diagonalized for initial guess.
 HarFok:  IExCor= 1009 AccDes= 0.00D+00 IRadAn=         4 IDoV= 1 UseB2=F ITyADJ=14
 ICtDFT=  3500011 ScaDFX=  1.000000  1.000000  1.000000  1.000000
 Defaulting to unpruned grid for atomic number  80.
 FoFCou: FMM=F IPFlag=           0 FMFlag=      100000 FMFlg1=           0
         NFxFlg=           0 DoJE=T BraDBF=F KetDBF=T FulRan=T
         wScrn=  0.000000 ICntrl=       500 IOpCl=  0 I1Cent=   200000004 NGrid=           0
         NMat0=    1 NMatS0=      1 NMatT0=    0 NMatD0=    1 NMtDS0=    0 NMtDT0=    0
 Petite list used in FoFCou.
 Keep R1 ints in memory in canonical form, NReq=25774275.
 Requested convergence on RMS density matrix=1.00D-08 within  32 cycles.
 Requested convergence on MAX density matrix=1.00D-06.
 Requested convergence on             energy=1.00D-06.
 No special actions if energy rises.
 Integral accuracy reduced to 1.0D-05 until final iterations.
 Defaulting to unpruned grid for atomic number  80.
 Defaulting to unpruned grid for atomic number  80.
 Defaulting to unpruned grid for atomic number  80.
 Defaulting to unpruned grid for atomic number  80.
 Defaulting to unpruned grid for atomic number  80.
 Defaulting to unpruned grid for atomic number  80.
 Defaulting to unpruned grid for atomic number  80.
 Defaulting to unpruned grid for atomic number  80.
 Defaulting to unpruned grid for atomic number  80.
 Defaulting to unpruned grid for atomic number  80.
 Defaulting to unpruned grid for atomic number  80.
 Defaulting to unpruned grid for atomic number  80.
 Defaulting to unpruned grid for atomic number  80.
 Defaulting to unpruned grid for atomic number  80.
 Defaulting to unpruned grid for atomic number  80.
 Defaulting to unpruned grid for atomic number  80.
 Defaulting to unpruned grid for atomic number  80.
 Defaulting to unpruned grid for atomic number  80.
 Defaulting to unpruned grid for atomic number  80.
 Defaulting to unpruned grid for atomic number  80.
 Defaulting to unpruned grid for atomic number  80.
 Defaulting to unpruned grid for atomic number  80.
 Defaulting to unpruned grid for atomic number  80.
 Defaulting to unpruned grid for atomic number  80.
 Initial convergence to 1.0D-05 achieved.  Increase integral accuracy.
 SCF Done:  E(RPBE1PBE) =  -292.956087422     A.U. after   14 cycles
            NFock= 14  Conv=0.44D-08     -V/T= 2.5457
 QCSCF skips out because SCF is already converged.
 PrsmSu:  requested number of processors reduced to:  13 ShMem   1 Linda.
   1 Symmetry operations used in ECPInt.
 ECPInt:  NShTT=     561 NPrTT=    1759 LenC2=     560 LenP2D=    1552.
 LDataN:  DoStor=T MaxTD1= 9 Len=  602
 Calling FoFJK, ICntrl=      2127 FMM=F ISym2X=0 I1Cent= 0 IOpClX= 0 NMat=1 NMatS=1 NMatT=0.
 Defaulting to unpruned grid for atomic number  80.
 Defaulting to unpruned grid for atomic number  80.
 Defaulting to unpruned grid for atomic number  80.
 Defaulting to unpruned grid for atomic number  80.
 Defaulting to unpruned grid for atomic number  80.
 Defaulting to unpruned grid for atomic number  80.
 Defaulting to unpruned grid for atomic number  80.
 Defaulting to unpruned grid for atomic number  80.
 Defaulting to unpruned grid for atomic number  80.
 Defaulting to unpruned grid for atomic number  80.
 Defaulting to unpruned grid for atomic number  80.
 Defaulting to unpruned grid for atomic number  80.
 Defaulting to unpruned grid for atomic number  80.
 Defaulting to unpruned grid for atomic number  80.
 Defaulting to unpruned grid for atomic number  80.
 Defaulting to unpruned grid for atomic number  80.
 Defaulting to unpruned grid for atomic number  80.
 Defaulting to unpruned grid for atomic number  80.
 Defaulting to unpruned grid for atomic number  80.
 Defaulting to unpruned grid for atomic number  80.
 Defaulting to unpruned grid for atomic number  80.
 Defaulting to unpruned grid for atomic number  80.
 Defaulting to unpruned grid for atomic number  80.
 Defaulting to unpruned grid for atomic number  80.
 ***** Axes restored to original set *****
 -------------------------------------------------------------------
 Center     Atomic                   Forces (Hartrees/Bohr)
 Number     Number              X              Y              Z
 -------------------------------------------------------------------
      1        6          -0.005190765   -0.027023578   -0.003373273
      2       80          -0.012458193    0.029115257    0.006458646
      3        1           0.003109088   -0.002913628    0.003359147
      4        1           0.001937013   -0.001705387   -0.004744377
      5        1           0.001800839    0.011407310    0.001388917
      6        9           0.010802018   -0.008879974   -0.003089060
 -------------------------------------------------------------------
 Cartesian Forces:  Max     0.029115257 RMS     0.011086036

 GradGradGradGradGradGradGradGradGradGradGradGradGradGradGradGradGradGrad
 Berny optimization.
 Using GEDIIS/GDIIS optimizer.
 FormGI is forming the generalized inverse of G from B-inverse, IUseBI=4.
 Internal  Forces:  Max     0.052501740 RMS     0.013721832
 Search for a local minimum.
 Step number   5 out of a maximum of   27
 All quantities printed in internal units (Hartrees-Bohrs-Radians)
 Mixed Optimization -- RFO/linear search
 Update second derivatives using D2CorX and points    2    3    5    4
 DE=  1.42D-02 DEPred=-8.30D-04 R=-1.71D+01
 Trust test=-1.71D+01 RLast= 5.36D-01 DXMaxT set to 2.52D-01
 The second derivative matrix:
                          R1        R2        R3        R4        R5
           R1           0.13633
           R2           0.00170   0.34854
           R3           0.00168   0.00319   0.34843
           R4           0.00170   0.00338   0.00333   0.34883
           R5          -0.02210  -0.01516  -0.01490  -0.01605   0.13970
           A1           0.01678   0.00559   0.00553   0.00574  -0.00163
           A2           0.01688   0.00485   0.00481   0.00496   0.00275
           A3           0.01113   0.00172   0.00172   0.00184   0.00659
           A4          -0.01531  -0.00594  -0.00588  -0.00609   0.01223
           A5          -0.01212  -0.00249  -0.00249  -0.00256  -0.00144
           A6          -0.01144  -0.00177  -0.00177  -0.00180  -0.00407
           A7           0.01200   0.00104   0.00104   0.00045   0.01954
           A8          -0.00016  -0.00022  -0.00022  -0.00023   0.00102
           D1          -0.00374  -0.00340  -0.00336  -0.00359   0.00987
           D2           0.00330   0.00255   0.00251   0.00264  -0.00681
           D3          -0.00483  -0.00382  -0.00377  -0.00398   0.01024
           D4          -0.00813  -0.00637  -0.00628  -0.00663   0.01705
                          A1        A2        A3        A4        A5
           A1           0.14215
           A2          -0.01898   0.14011
           A3          -0.02106  -0.02190   0.14377
           A4           0.01658   0.01779   0.02060   0.14384
           A5           0.01969   0.02039   0.01833  -0.01960   0.14090
           A6           0.01967   0.02018   0.01801  -0.01973  -0.01877
           A7           0.00386   0.00629  -0.01911  -0.00376   0.00658
           A8           0.00004   0.00011   0.00005  -0.00003  -0.00013
           D1           0.00075   0.00167   0.00188   0.00024  -0.00186
           D2          -0.00021  -0.00073  -0.00252  -0.00044   0.00174
           D3           0.00058   0.00144   0.00338   0.00043  -0.00256
           D4           0.00079   0.00217   0.00590   0.00087  -0.00429
                          A6        A7        A8        D1        D2
           A6           0.14170
           A7           0.00515   0.11188
           A8          -0.00017   0.00091   0.00232
           D1          -0.00241   0.00728   0.00021   0.00462
           D2           0.00206   0.00159  -0.00010  -0.00129   0.00337
[...]
     2  80     0.00  -0.00   0.00    -0.00   0.00  -0.00     0.00   0.00   0.00
     3   1     0.18   0.48  -0.26     0.27   0.66  -0.35     0.06   0.14  -0.10
     4   1     0.18  -0.47  -0.29    -0.08   0.18   0.13    -0.26   0.63   0.38
     5   1     0.18  -0.02   0.55    -0.19   0.00  -0.52     0.20  -0.03   0.56
     6   9    -0.00  -0.00   0.00    -0.00  -0.00   0.00     0.00  -0.00  -0.00

 -------------------
 - Thermochemistry -
 -------------------
 Temperature   298.150 Kelvin.  Pressure   1.00000 Atm.
 Atom     1 has atomic number  6 and mass  12.00000
 Atom     2 has atomic number 80 and mass 201.97060
 Atom     3 has atomic number  1 and mass   1.00783
 Atom     4 has atomic number  1 and mass   1.00783
 Atom     5 has atomic number  1 and mass   1.00783
 Atom     6 has atomic number  9 and mass  18.99840
 Molecular mass:   235.99248 amu.
 Principal axes and moments of inertia in atomic units:
                           1         2         3
     Eigenvalues --    11.54724 508.48115 508.48251
           X            1.00000   0.00001  -0.00002
           Y           -0.00001   1.00000   0.00140
           Z            0.00002  -0.00140   1.00000
 This molecule is an asymmetric top.
 Rotational symmetry number  1.
 Rotational temperatures (Kelvin)      7.50083     0.17034     0.17034
 Rotational constants (GHZ):         156.29200     3.54928     3.54927
 Zero-point vibrational energy     100005.1 (Joules/Mol)
                                   23.90178 (Kcal/Mol)
 Warning -- explicit consideration of   4 degrees of freedom as
           vibrations may cause significant error
 Vibrational temperatures:    239.72   239.83   800.64   881.42  1182.48
          (Kelvin)           1182.82  1788.25  2063.90  2064.00  4423.94
                             4594.33  4594.36
 
 Zero-point correction=                           0.038090 (Hartree/Particle)
 Thermal correction to Energy=                    0.042663
 Thermal correction to Enthalpy=                  0.043607
 Thermal correction to Gibbs Free Energy=         0.009756
 Sum of electronic and zero-point Energies=           -292.932212
 Sum of electronic and thermal Energies=              -292.927640
 Sum of electronic and thermal Enthalpies=            -292.926696
 Sum of electronic and thermal Free Energies=         -292.960547
 
                     E (Thermal)             CV                S
                      KCal/Mol        Cal/Mol-Kelvin    Cal/Mol-Kelvin
 Total                   26.771             13.456             71.245
 Electronic               0.000              0.000              0.000
 Translational            0.889              2.981             42.277
 Rotational               0.889              2.981             22.617
 Vibrational             24.994              7.495              6.351
 Vibration     1          0.624              1.884              2.473
 Vibration     2          0.624              1.883              2.473
 Vibration     3          0.912              1.126              0.531
 Vibration     4          0.972              1.005              0.428
                       Q            Log10(Q)             Ln(Q)
 Total Bot       0.325605D-04         -4.487309        -10.332410
 Total V=0       0.107850D+14         13.032821         30.009178
 Vib (Bot)       0.116823D-16        -16.932470        -38.988453
 Vib (Bot)    1  0.121084D+01          0.083086          0.191312
 Vib (Bot)    2  0.121030D+01          0.082894          0.190871
 Vib (Bot)    3  0.280255D+00         -0.552447         -1.272055
 Vib (Bot)    4  0.240574D+00         -0.618752         -1.424728
 Vib (V=0)       0.386954D+01          0.587659          1.353136
 Vib (V=0)    1  0.181001D+01          0.257681          0.593332
 Vib (V=0)    2  0.180952D+01          0.257563          0.593060
 Vib (V=0)    3  0.107319D+01          0.030675          0.070632
 Vib (V=0)    4  0.105487D+01          0.023197          0.053413
 Electronic      0.100000D+01          0.000000          0.000000
 Translational   0.142495D+09          8.153801         18.774821
 Rotational      0.195596D+05          4.291360          9.881222
 ***** Axes restored to original set *****
 -------------------------------------------------------------------
 Center     Atomic                   Forces (Hartrees/Bohr)
 Number     Number              X              Y              Z
 -------------------------------------------------------------------
      1        6          -0.000001861   -0.000006096    0.000000351
      2       80           0.000038223    0.000042559    0.000003921
      3        1          -0.000008730   -0.000013925   -0.000014538
      4        1           0.000000245   -0.000015081    0.000009468
      5        1           0.000010511    0.000021339    0.000002401
      6        9          -0.000038386   -0.000028795   -0.000001603
 -------------------------------------------------------------------
 Cartesian Forces:  Max     0.000042559 RMS     0.000019726
 FormGI is forming the generalized inverse of G from B-i
 GradGradGradGrad
 GradGradGradGradGradGradGradGradGradGradGradGradGradGradGradGradGradGrad
 Berny optimization.
 Internal  Forces:  Max     0.000047515 RMS     0.000018584
 Search for a local minimum.
 Step number   1 out of a maximum of    2
 All quantities printed in internal units (Hartrees-Bohrs-Radians)
 Second derivative matrix not updated -- analytic derivatives used.
 The second derivative matrix:
                          R1        R2        R3        R4        R5
           R1           0.17462
           R2           0.00230   0.35187
           R3           0.00230  -0.00006   0.35187
           R4           0.00230  -0.00006  -0.00006   0.35189
           R5          -0.00219   0.00073   0.00073   0.00073   0.23386
           A1           0.00275  -0.00045  -0.00049  -0.00155   0.00074
           A2           0.00430  -0.00005   0.00000  -0.00384   0.00116
           A3           0.00836  -0.00342  -0.00342  -0.00074   0.00226
           A4          -0.00118   0.00340   0.00341  -0.00574  -0.00032
           A5          -0.00677   0.00633  -0.00553   0.00534  -0.00183
           A6          -0.00762  -0.00577   0.00607   0.00660  -0.00206
           A7          -0.00001   0.00016   0.00016  -0.00032  -0.00002
           A8           0.00000  -0.00011   0.00011  -0.00000   0.00000
           D1           0.00527   0.00153   0.00151  -0.00781   0.00142
           D2          -0.00430  -0.00128   0.00613  -0.00096  -0.00116
           D3           0.00567  -0.00574   0.00168  -0.00108   0.00153
           D4           0.00997  -0.00446  -0.00446  -0.00011   0.00269
                          A1        A2        A3        A4        A5
           A1           0.01683
           A2          -0.00766   0.03175
           A3          -0.01067  -0.01836   0.06160
           A4          -0.00763  -0.00136   0.02170   0.03429
           A5          -0.01213   0.02179  -0.03103  -0.02076   0.06737
           A6           0.02127  -0.02622  -0.02358  -0.02637  -0.02500
           A7           0.00571   0.00859  -0.01930  -0.00407   0.00535
           A8          -0.00328   0.00433  -0.00052   0.00036   0.00200
           D1           0.01122   0.00924  -0.01090   0.01107  -0.01439
           D2          -0.00657   0.00714  -0.00544   0.00893  -0.00789
           D3          -0.00274   0.01142   0.00062  -0.00472  -0.00783
           D4           0.00383   0.00428   0.00606  -0.01365   0.00007
                          A6        A7        A8        D1        D2
           A6           0.08020
           A7           0.00377   0.12721
           A8          -0.00288   0.00001   0.01962
           D1          -0.00633   0.00975  -0.00115   0.02629
           D2           0.00388   0.00151   0.00311   0.00185   0.01630
           D3           0.00314   0.00104   0.00320   0.00071   0.00784
           D4          -0.00074  -0.00047   0.00009  -0.00114  -0.00846
                          D3        D4
           D3           0.01635
           D4           0.00851       Eigenvalues -     Eigenvalues ---    0.01736   0.03322   0.03754   0.05483   0.10203
     Eigenvalues ---    0.12071   0.14328   0.17834   0.23406   0.35216
     Eigenvalues ---    0.35265   0.35270
 Angle between quadratic step and forces=  36.91 degrees.
 Linear  Iteration  1 RMS(C Iteration  1 RMS( Iteration  1 RMS(Cart)=  0.00036835 RMS( Iteration  2 RMS( Iteration  2 RMS(Cart)=  0.00000011 RMS(Int)=  0.00000000
 Variable       Old X    -DE/DX   Delta X   Delta X   Delta X     New X
                                 (Linear)    (Quad)   (Total)
    R1        3.87005   0.00001   0.00000   0.00004   0.00004   3.87009
    R2        2.07671  -0.00000   0.00000  -0.00001  -0.00001   2.07670
    R3        2.07670  -0.00000   0.00000  -0.00000  -0.00000   2.07670
    R4        2.07670  -0.00000   0.00000   0.00001   0.00001   2.07670
    R5        3.70075  -0.00005   0.00000  -0.00020  -0.00020   3.70054
    A1        1.91557   0.00001   0.00000   0.00033   0.00033   1.91590
    A2        1.91572   0.00001   0.00000   0.00018   0.00018   1.91590
    A3        1.91635  -0.00004   0.00000  -0.00045  -0.00045   1.91590
    A4        1.90552  -0.00002   0.00000  -0.00018  -0.00018   1.90534
    A5        1.90528   0.00001   0.00000   0.00005   0.00005   1.90534
    A6        1.90527   0.00002   0.00000   0.00007   0.00007   1.90534
    A7        3.14191  -0.00002   0.00000  -0.00032  -0.00032   3.14159
    A8        3.14131   0.00000   0.00000   0.00028   0.00028   3.14160
    D1        2.10041   0.00001   0.00000   0.00040   0.00040   2.10082
    D2       -2.10065  -0.00000   0.00000  -0.00016  -0.00016  -2.10082
    D3        2.10083   0.00000   0.00000  -0.00002  -0.00002   2.10081
    D4       -2.08170   0.00001   0.00000   0.00015   0.00015  -2.08155
         Item               Value     Threshold  Converged?
 Maximum Force            0.000048     0.000450     YES
 RMS     Force            0.000019     0.000300     YES
 Maximum Displacement     0.000793     0.001800     YES
 RMS     Displacement     0.000368     0.001200     YES
 Predicted change in Energy=-2.777642D-08
 Optimization completed.
    -- Stationary point found.
                           ----------------------------
                           !   Optimized Parameters   !
                           ! (Angstroms and Degrees)  !
 --------------------------                            --------------------------
 ! Name  Definition              Value          Derivative Info.                !
 --------------------------------------------------------------------------------
 ! R1    R(1,2)                  2.0479         -DE/DX =    0.0                 !
 ! R2    R(1,3)                  1.0989         -DE/DX =    0.0                 !
 ! R3    R(1,4)                  1.0989         -DE/DX =    0.0                 !
 ! R4    R(1,5)                  1.0989         -DE/DX =    0.0                 !
 ! R5    R(2,6)                  1.9584         -DE/DX =    0.0                 !
 ! A1    A(2,1,3)              109.7541         -DE/DX =    0.0                 !
 ! A2    A(2,1,4)              109.7627         -DE/DX =    0.0                 !
 ! A3    A(2,1,5)              109.7988         -DE/DX =    0.0                 !
 ! A4    A(3,1,4)              109.1782         -DE/DX =    0.0                 !
 ! A5    A(3,1,5)              109.1646         -DE/DX =    0.0                 !
 ! A6    A(4,1,5)              109.164          -DE/DX =    0.0                 !
 ! A7    L(1,2,6,5,-1)         180.0181         -DE/DX =    0.0                 !
 ! A8    L(1,2,6,5,-2)         179.9841         -DE/DX =    0.0                 !
 ! D1    D(2,1,4,3)            120.3448         -DE/DX =    0.0                 !
 ! D2    D(2,1,5,3)           -120.3586         -DE/DX =    0.0                 !
 ! D3    D(2,1,5,4)            120.3687         -DE/DX =    0.0                 !
 ! D4    D(3,1,5,4)           -119.2727         -DE/DX =    0.0                 !
 --------------------------------------------------------------------------------
 GradGradGradGradGradGradGradGradGradGradGradGradGradGradGradGradGradGrad


 ----------------------------------------------------------------------

 Electric dipole moment (input orientation):
 (Debye = 10**-18 statcoulomb cm , SI units = C m)
                  (au)            (Debye)         (10**-30 SI)
   Tot        0.132999D+01      0.338049D+01      0.112761D+02
   x         -0.941813D+00     -0.239385D+01     -0.798502D+01
   y         -0.939071D+00     -0.238688D+01     -0.796178D+01
   z          0.772883D-04      0.196447D-03      0.655277D-03

 Dipole polarizability, Alpha (input orientation).
 (esu units = cm**3 , SI units = C**2 m**2 J**-1)
 Alpha(0;0):
               (au)            (10**-24 esu)      (10**-40 SI)
   iso        0.378434D+02      0.560782D+01      0.623954D+01
   aniso      0.221851D+02      0.328750D+01      0.365784D+01
   xx         0.415709D+02      0.616017D+01      0.685412D+01
   yx         0.110928D+02      0.164378D+01      0.182896D+01
   yy         0.415104D+02      0.615121D+01      0.684414D+01
   zx        -0.113669D-02     -0.168439D-03     -0.187414D-03
   zy        -0.174945D-02     -0.259241D-03     -0.288445D-03
   zz         0.304489D+02      0.451207D+01      0.502035D+01

 ----------------------------------------------------------------------

 Dipole orientation:
     6         -6.09171273          6.10932966          4.21225855
    80         -6.09244769          6.10983138          0.34221275
     1         -4.14031836          6.22168501          4.91379703
     1         -6.96961545          4.36319021          4.91438548
     1         -7.16429537          7.74238116          4.91608816
     9         -6.09217148          6.10955548         -3.35853462

 Electric dipole moment (dipole orientation):
 (Debye = 10**-18 statcoulomb cm , SI units = C m)
                  (au)            (Debye)         (10**-30 SI)
   Tot        0.132999D+01      0.338049D+01      0.112761D+02
   x          0.000000D+00      0.000000D+00      0.000000D+00
   y          0.000000D+00      0.000000D+00      0.000000D+00
   z          0.132999D+01      0.338049D+01      0.112761D+02

 Dipole polarizability, Alpha (dipole orientation).
 (esu units = cm**3 , SI units = C**2 m**2 J**-1)
 Alpha(0;0):
               (au)            (10**-24 esu)      (10**-40 SI)
   iso        0.378434D+02      0.560782D+01      0.623954D+01
   aniso      0.221851D+02      0.328750D+01      0.365784D+01
   xx         0.304488D+02      0.451205D+01      0.502033D+01
   yx         0.558096D-03      0.827014D-04      0.920177D-04
   yy         0.304479D+02      0.451192D+01      0.502019D+01
   zx         0.201308D-02      0.298308D-03      0.331913D-03
   zy        -0.955365D-03     -0.141570D-03     -0.157518D-03
   zz         0.526335D+02      0.779948D+01      0.867810D+01

 ----------------------------------------------------------------------

 Test job not archived.
 1\1\GINC-GRANADO-COMPUTE-14\Freq\RPBE1PBE\def2SVP\C1H3F1Hg1\ROOT\28-Ju
 n-2023\0\\#N Geom=AllCheck Guess=TCheck SCRF=Check Test GenChk RPBE1PB
 E/def2SVP Freq\\Optimization MeHgCl-apfd-def2svp-gas phase\\0,1\C,-4.8
 020096945,1.65909927,0.0000659308\Hg,-3.3521145074,3.1054265328,-0.000
 14103\H,-4.5797818028,0.9105090313,0.7733136312\H,-4.8347571953,1.1656
 434879,-0.9813144942\H,-5.7807978099,2.1132682541,0.2083303757\F,-1.96
 51879901,4.488023424,-0.0002544135\\Version=EM64L-G16RevA.03\State=1-A
 \HF=-292.9703024\RMSD=6.689e-10\RMSF=1.973e-05\ZeroPoint=0.0380899\The
 rmal=0.0426625\Dipole=-0.9418129,-0.939071,0.0000773\DipoleDeriv=-0.12
 88923,0.0685167,-0.0000222,0.0686391,-0.1290984,-0.0000069,-0.0000121,
 0.0000065,-0.1976116,0.9374512,0.4853031,-0.0000478,0.4852396,0.934498
 7,-0.0000465,-0.0000469,-0.0000455,0.4506999,0.0370867,-0.0649625,0.02
 0835,-0.0236231,-0.0447009,0.0774141,-0.0121252,0.0445173,0.0309219,0.
 0293235,-0.0678557,-0.0452968,-0.0482393,-0.009376,-0.0793578,-0.00346
 69,-0.0375931,0.0033854,-0.0851914,0.0073414,0.0244915,-0.0537711,0.03
 58308,0.0019575,0.0156151,-0.0069205,0.0727727,-0.7897776,-0.4283431,0
 .0000403,-0.4282451,-0.7871542,0.0000396,0.000036,0.0000352,-0.3601682
 \Polar=41.5709145,11.0928081,41.5104249,-0.0011367,-0.0017494,30.44893
 95\Quadrupole=-1.0542577,-1.0351383,2.089396,-3.1336887,0.000301,0.000
 1699\PG=C01 [X(C1H3F1Hg1)]\NImag=0\\0.44074911,-0.10214550,0.44091960,
 0.00001933,0.00000705,0.54301989,-0.09559251,-0.05536167,0.00000942,0.
 23488229,-0.05533802,-0.09530623,0.00000670,0.17848302,0.23388723,0.00
 000826,0.00000486,-0.04009292,-0.00001776,-0.00002105,0.05590864,-0.04
 784389,0.04051396,-0.03548283,0.00225519,-0.01191720,0.01210215,0.0536
 1190,0.04935749,-0.17543280,0.14411521,0.00190061,-0.00962403,0.008363
 55,-0.04561479,0.18272846,-0.04252663,0.13708206,-0.18687871,0.0010947
 8,-0.00262279,0.00193257,0.04543174,-0.14826462,0.19645123,-0.03767841
 ,-0.00082919,-0.01483904,-0.00177213,-0.00737704,-0.01412117,-0.001328
 44,-0.00342446,-0.00553212,0.04042595,0.00337012,-0.09822700,-0.123009
 18,-0.00081457,-0.00740572,-0.01185301,0.00024025,0.01061896,0.0198830
 4,0.00147605,0.10168367,-0.00589928,-0.11408142,-0.27426315,-0.0001512
 4,0.00209301,0.00374708,0.00055156,-0.01142527,-0.01589482,0.00690283,
 0.12357479,0.29069197,-0.27182229,0.11803542,0.05029461,-0.01107752,0.
 00384109,0.00201772,-0.00378482,0.00013348,0.00218690,0.00245229,-0.00
 215812,-0.00194006,0.28466514,0.10499437,-0.08414933,-0.02111878,-0.01
 652805,0.00648413,0.00349481,0.01738815,-0.00765613,-0.00631344,0.0114
 4009,-0.00565671,-0.00015952,-0.11741272,0.09475120,0.04839755,-0.0230
 1380,-0.05420178,-0.00094423,0.00053505,-0.00081604,-0.02056254,0.0083
 5866,0.00482728,0.02529604,-0.01034910,-0.00341002,-0.05230629,0.02470
 291,0.05338086,0.01218798,-0.00021303,-0.00000150,-0.12869532,-0.10769
 185,0.00001081,-0.00290995,-0.00235233,-0.00065467,-0.00209925,-0.0021
 1374,0.00053619,-0.00043280,0.00011815,0.00011947,0.12194933,-0.000238
 46,0.01219577,-0.00000100,-0.10767935,-0.12803537,0.00001084,-0.000610
 38,-0.00063446,0.00023575,-0.00128545,-0.00101320,-0.00000158,-0.00243
 916,-0.00377317,-0.00023372,0.11225280,0.12126043,0.00000076,0.0000012
 4,0.01241668,0.00000904,0.00000908,-0.02067933,-0.00204006,-0.00114753
 ,-0.00043755,0.00229345,0.00175347,-0.00087106,-0.00025288,-0.00060598
 ,0.00021969,-0.00001031,-0.00001029,0.00935157\\0.00000186,0.00000610,
 -0.00000035,-0.00003822,-0.00004256,-0.00000392,0.00000873,0.00001392,
 0.00001454,-0.00000024,0.00001508,-0.00000947,-0.00001051,-0.00002134,
 -0.00000240,0.00003839,0.00002880,0.00000160\\\@


 Once you get people laughing, they're
 listening and you can tell them almost anything.
                                 -- Herb Gardner
 Job cpu time:       0 days  0 hours 21 minutes 36.2 seconds.
 Elapsed time:       0 days  0 hours 21 minutes 21.5 seconds.
 File lengths (MBytes):  RWF=      9 Int=      0 D2E=      0 Chk=      2 Scr=      1
 Normal termination of Gaussian 16 at Wed Jun 28 10:17:15 2023.
 minutes  6.3 seconds.
 File lengths (MBytes):  RWF=      9 Int=      0 D2E=      0 Chk=      2 Scr=      1
 Normal termination of Gaussian 16 at Wed Jun 28 10:17:04 2023.
23.
6 at Wed Jun 28 10:16:42 2023.
1.7 seconds.
 File lengths (MBytes):  RWF=      9 Int=      0 D2E=      0 Chk=      2 Scr=      1
 Normal termination of Gaussian 16 at Wed Jun 28 10:16:36 2023.
, TRAFFICKING, HUCKSTERING, BUYING, SELLING,  
 AND AT THE END WINNOWING NOTHING BUT BITTERNESS,             
 FOR THIS HE WAS MOVED TO PITY......                   
                   BUDAH'S PITY - UPSAKA SILA SUTRA           
 Job cpu time:       0 days  0 hours 21 minutes 14.4 seconds.
 Elapsed time:       0 days  0 hours 21 minutes 15.1 seconds.
 File lengths (MBytes):  RWF=      9 Int=      0 D2E=      0 Chk=      2 Scr=      1
 Normal termination of Gaussian 16 at Wed Jun 28 10:13:14 2023.
