 Entering Gaussian System, Link 0=g16
 Input=input.gjf
 Output=input.log
 Initial command:
 /opt/ohpc/pub/apps/gaussian/G16x86_64_legacy_CPUs_linux_binary/g16/l1.exe "/tmp/Gau-32366.inp" -scrdir="/tmp/"
 Entering Link 1 = /opt/ohpc/pub/apps/gaussian/G16x86_64_legacy_CPUs_linux_binary/g16/l1.exe PID=     32414.
  
 Copyright (c) 1988,1990,1992,1993,1995,1998,2003,2009,2016,
            Gaussian, Inc.  All Rights Reserved.
  
 This is part of the Gaussian(R) 16 program.  It is based on
 the Gaussian(R) 09 system (copyright 2009, Gaussian, Inc.),
 the Gaussian(R) 03 system (copyright 2003, Gaussian, Inc.),
 the Gaussian(R) 98 system (copyright 1998, Gaussian, Inc.),
 the Gaussian(R) 94 system (copyright 1995, Gaussian, Inc.),
 the Gaussian 92(TM) system (copyright 1992, Gaussian, Inc.),
 the Gaussian 90(TM) system (copyright 1990, Gaussian, Inc.),
 the Gaussian 88(TM) system (copyright 1988, Gaussian, Inc.),
 the Gaussian 86(TM) system (copyright 1986, Carnegie Mellon
 University), and the Gaussian 82(TM) system (copyright 1983,
 Carnegie Mellon University). Gaussian is a federally registered
 trademark of Gaussian, Inc.
  
 This software contains proprietary and confidential information,
 including trade secrets, belonging to Gaussian, Inc.
  
 This software is provided under written license and may be
 used, copied, transmitted, or stored only in accord with that
 written license.
  
 The following legend is applicable only to US Government
 contracts under FAR:
  
                    RESTRICTED RIGHTS LEGEND
  
 Use, reproduction and disclosure by the US Government is
 subject to restrictions as set forth in subparagraphs (a)
 and (c) of the Commercial Computer Software - Restricted
 Rights clause in FAR 52.227-19.
  
 Gaussian, Inc.
 340 Quinnipiac St., Bldg. 40, Wallingford CT 06492
  
  
 ---------------------------------------------------------------
 Warning -- This program may not be used in any manner that
 competes with the business of Gaussian, Inc. or will provide
 assistance to any competitor of Gaussian, Inc.  The licensee
 of this program is prohibited from giving any competitor of
 Gaussian, Inc. access to this program.  By using this program,
 the user acknowledges that Gaussian, Inc. is engaged in the
 business of creating and licensing software in the field of
 computational chemistry and represents and warrants to the
 licensee that it is not a competitor of Gaussian, Inc. and that
 it will not use this program in any manner prohibited above.
 ---------------------------------------------------------------
  

 Cite this work as:
 Gaussian 16, Revision A.03,
 M. J. Frisch, G. W. Trucks, H. B. Schlegel, G. E. Scuseria, 
 M. A. Robb, J. R. Cheeseman, G. Scalmani, V. Barone, 
 G. A. Petersson, H. Nakatsuji, X. Li, M. Caricato, A. V. Marenich, 
 J. Bloino, B. G. Janesko, R. Gomperts, B. Mennucci, H. P. Hratchian, 
 J. V. Ortiz, A. F. Izmaylov, J. L. Sonnenberg, D. Williams-Young, 
 F. Ding, F. Lipparini, F. Egidi, J. Goings, B. Peng, A. Petrone, 
 T. Henderson, D. Ranasinghe, V. G. Zakrzewski, J. Gao, N. Rega, 
 G. Zheng, W. Liang, M. Hada, M. Ehara, K. Toyota, R. Fukuda, 
 J. Hasegawa, M. Ishida, T. Nakajima, Y. Honda, O. Kitao, H. Nakai, 
 T. Vreven, K. Throssell, J. A. Montgomery, Jr., J. E. Peralta, 
 F. Ogliaro, M. J. Bearpark, J. J. Heyd, E. N. Brothers, K. N. Kudin, 
 V. N. Staroverov, T. A. Keith, R. Kobayashi, J. Normand, 
 K. Raghavachari, A. P. Rendell, J. C. Burant, S. S. Iyengar, 
 J. Tomasi, M. Cossi, J. M. Millam, M. Klene, C. Adamo, R. Cammi, 
 J. W. Ochterski, R. L. Martin, K. Morokuma, O. Farkas, 
 J. B. Foresman, and D. J. Fox, Gaussian, Inc., Wallingford CT, 2016.
 
 ******************************************
 Gaussian 16:  EM64L-G16RevA.03 25-Dec-2016
                20-May-2023 
 ******************************************
 %NProcShared=24
 Will use up to   24 processors via shared memory.
 %Chk=ch3hgoh_gas_pbeo_def2svp.chk
 ------------------------------
 #Opt Freq PBE1PBE/Def2SVP test
 ------------------------------
 1/18=20,19=15,26=3,38=1/1,3;
 2/9=110,12=2,17=6,18=5,40=1/2;
 3/5=43,7=101,11=2,25=1,30=1,71=1,74=-13/1,2,3;
 4//1;
 5/5=2,38=5/2;
 6/7=2,8=2,9=2,10=2,28=1/1;
 7//1,2,3,16;
 1/18=20,19=15,26=3/3(2);
 2/9=110/2;
 99//99;
 2/9=110/2;
 3/5=43,7=101,11=2,25=1,30=1,71=1,74=-13/1,2,3;
 4/5=5,16=3,69=1/1;
 5/5=2,38=5/2;
 7//1,2,3,16;
 1/18=20,19=15,26=3/3(-5);
 2/9=110/2;
 6/7=2,8=2,9=2,10=2,19=2,28=1/1;
 99/9=1/99;
 ------------------------------------------
 Optimization MeHgoh-gas-apfd-def2svp phase
 ------------------------------------------
 Symbolic Z-matrix:
 Charge =  0 Multiplicity = 1
 C                    -9.57536   2.78239  -0.00001 
 Hg                   -7.49454   3.01386  -0.00018 
 H                    -10.05261   3.72905   0.32683 
 H                    -9.85645   1.96647   0.69713 
 H                    -9.91919   2.52901  -1.02388 
 O                    -5.52159   3.23238  -0.00034 
 H                    -5.16996   2.30668   0.0005 
 

 GradGradGradGradGradGradGradGradGradGradGradGradGradGradGradGradGradGrad
 Berny optimization.
 Initialization pass.
                           ----------------------------
                           !    Initial Parameters    !
                           ! (Angstroms and Degrees)  !
 --------------------------                            --------------------------
 ! Name  Definition              Value          Derivative Info.                !
 --------------------------------------------------------------------------------
 ! R1    R(1,2)                  2.0937         estimate D2E/DX2                !
 ! R2    R(1,3)                  1.1094         estimate D2E/DX2                !
 ! R3    R(1,4)                  1.1094         estimate D2E/DX2                !
 ! R4    R(1,5)                  1.1094         estimate D2E/DX2                !
 ! R5    R(2,6)                  1.985          estimate D2E/DX2                !
 ! R6    R(6,7)                  0.9902         estimate D2E/DX2                !
 ! A1    A(2,1,3)              109.4653         estimate D2E/DX2                !
 ! A2    A(2,1,4)              109.4621         estimate D2E/DX2                !
 ! A3    A(2,1,5)              109.4634         estimate D2E/DX2                !
 ! A4    A(3,1,4)              109.4784         estimate D2E/DX2                !
 ! A5    A(3,1,5)              109.4794         estimate D2E/DX2                !
 ! A6    A(4,1,5)              109.4787         estimate D2E/DX2                !
 ! A7    A(2,6,7)              104.4792         estimate D2E/DX2                !
 ! A8    L(1,2,6,7,-1)         179.9727         estimate D2E/DX2                !
 ! A9    L(1,2,6,7,-2)         180.0            estimate D2E/DX2                !
 ! D1    D(3,1,6,7)            161.7407         estimate D2E/DX2                !
 ! D2    D(4,1,6,7)             41.7394         estimate D2E/DX2                !
 ! D3    D(5,1,6,7)            -78.2516         estimate D2E/DX2                !
 --------------------------------------------------------------------------------
 Trust Radius=3.00D-01 FncErr=1.00D-07 GrdErr=1.00D-06 EigMax=2.50D+02 EigMin=1.00D-04
 Number of steps in this run=     28 maximum allowed number of steps=    100.
 GradGradGradGradGradGradGradGradGradGradGradGradGradGradGradGradGradGrad

                          Input orientation:                          
 ---------------------------------------------------------------------
 Center     Atomic      Atomic             Coordinates (Angstroms)
 Number     Number       Type             X           Y           Z
 ---------------------------------------------------------------------
      1          6           0       -9.575360    2.782390   -0.000010
      2         80           0       -7.494540    3.013860   -0.000180
      3          1           0      -10.052610    3.729050    0.326830
      4          1           0       -9.856450    1.966470    0.697130
      5          1           0       -9.919190    2.529010   -1.023880
      6          8           0       -5.521590    3.232380   -0.000340
      7          1           0       -5.169960    2.306680    0.000500
 ---------------------------------------------------------------------
                    Distance matrix (angstroms):
                    1          2          3          4          5
     1  C    0.000000
     2  Hg   2.093655   0.000000
     3  H    1.109395   2.676220   0.000000
     4  H    1.109388   2.676170   1.811709   0.000000
     5  H    1.109383   2.676186   1.811716   1.811702   0.000000
     6  O    4.078669   1.985015   4.569887   4.569464   4.569601
     7  H    4.431010   2.429769   5.096067   4.750182   4.863535
                    6          7
     6  O    0.000000
     7  H    0.990235   0.000000
 Stoichiometry    CH4HgO
 Framework group  C1[X(CH4HgO)]
 Deg. of freedom    15
 Full point group                 C1      NOp   1
 Largest Abelian subgroup         C1      NOp   1
 Largest concise Abelian subgroup C1      NOp   1
                         Standard orientation:                         
 ---------------------------------------------------------------------
 Center     Atomic      Atomic             Coordinates (Angstroms)
 Number     Number       Type             X           Y           Z
 ---------------------------------------------------------------------
      1          6           0       -2.074360    0.047629    0.000001
      2         80           0        0.018491   -0.010388    0.000000
      3          1           0       -2.471435   -0.935076   -0.327686
      4          1           0       -2.422221    0.838029   -0.696421
      5          1           0       -2.437970    0.270701    1.024089
      6          8           0        2.002769   -0.064451   -0.000000
      7          1           0        2.276377    0.887234   -0.000014
 ---------------------------------------------------------------------
 Rotational constants (GHZ):         120.4017305           3.5925805           3.5700073
 Standard basis: def2SVP (5D, 7F)
 There are    87 symmetry adapted cartesian basis functions of A   symmetry.
 There are    80 symmetry adapted basis functions of A   symmetry.
    80 basis functions,   143 primitive gaussians,    87 cartesian basis functions
    19 alpha electrons       19 beta electrons
       nuclear repulsion energy       112.9889227196 Hartrees.
 NAtoms=    7 NActive=    7 NUniq=    7 SFac= 1.00D+00 NAtFMM=   60 NAOKFM=F Big=F
 Integral buffers will be    131072 words long.
 Raffenetti 2 integral format.
 Two-electron integral symmetry is turned on.
 One-electron integrals computed using PRISM.
 PrsmSu:  requested number of processors reduced to:  13 ShMem   1 Linda.
   1 Symmetry operations used in ECPInt.
 ECPInt:  NShTT=     666 NPrTT=    2067 LenC2=     666 LenP2D=    1822.
 LDataN:  DoStor=T MaxTD1= 8 Len=  415
 NBasis=    80 RedAO= T EigKep=  7.38D-03  NBF=    80
 NBsUse=    80 1.00D-06 EigRej= -1.00D+00 NBFU=    80
 Defaulting to unpruned grid for atomic number  80.
 ExpMin= 5.64D-02 ExpMax= 2.27D+03 ExpMxC= 3.41D+02 IAcc=3 IRadAn=         5 AccDes= 0.00D+00
 Harris functional with IExCor= 1009 and IRadAn=       5 diagonalized for initial guess.
 HarFok:  IExCor= 1009 AccDes= 0.00D+00 IRadAn=         5 IDoV= 1 UseB2=F ITyADJ=14
 ICtDFT=  3500011 ScaDFX=  1.000000  1.000000  1.000000  1.000000
 Defaulting to unpruned grid for atomic number  80.
 FoFCou: FMM=F IPFlag=           0 FMFlag=      100000 FMFlg1=           0
         NFxFlg=           0 DoJE=T BraDBF=F KetDBF=T FulRan=T
         wScrn=  0.000000 ICntrl=       500 IOpCl=  0 I1Cent=   200000004 NGrid=           0
         NMat0=    1 NMatS0=      1 NMatT0=    0 NMatD0=    1 NMtDS0=    0 NMtDT0=    0
 Petite list used in FoFCou.
 Keep R1 ints in memory in canonical form, NReq=27063669.
 Requested convergence on RMS density matrix=1.00D-08 within 128 cycles.
 Requested convergence on MAX density matrix=1.00D-06.
 Requested convergence on             energy=1.00D-06.
 No special actions if energy rises.
 Integral accuracy reduced to 1.0D-05 until final iterations.
 Defaulting to unpruned grid for atomic number  80.
 Defaulting to unpruned grid for atomic number  80.
 Defaulting to unpruned grid for atomic number  80.
 Defaulting to unpruned grid for atomic number  80.
 Defaulting to unpruned grid for atomic number  80.
 Defaulting to unpruned grid for atomic number  80.
 Defaulting to unpruned grid for atomic number  80.
 Defaulting to unpruned grid for atomic number  80.
 Defaulting to unpruned grid for atomic number  80.
 Defaulting to unpruned grid for atomic number  80.
 Defaulting to unpruned grid for atomic number  80.
 Defaulting to unpruned grid for atomic number  80.
 Defaulting to unpruned grid for atomic number  80.
 Defaulting to unpruned grid for atomic number  80.
 Defaulting to unpruned grid for atomic number  80.
 Defaulting to unpruned grid for atomic number  80.
 Defaulting to unpruned grid for atomic number  80.
 Defaulting to unpruned grid for atomic number  80.
 Defaulting to unpruned grid for atomic number  80.
 Defaulting to unpruned grid for atomic number  80.
 Defaulting to unpruned grid for atomic number  80.
 Defaulting to unpruned grid for atomic number  80.
 Defaulting to unpruned grid for atomic number  80.
 Defaulting to unpruned grid for atomic number  80.
 Initial convergence to 1.0D-05 achieved.  Increase integral accuracy.
 SCF Done:  E(RPBE1PBE) =  -268.972160975     A.U. after   14 cycles
            NFock= 14  Conv=0.41D-08     -V/T= 2.6265

 **********************************************************************

            Population analysis using the SCF density.

 **********************************************************************

 Orbital symmetries:
       Occupied  (A) (A) (A) (A) (A) (A) (A) (A) (A) (A) (A) (A)
                 (A) (A) (A) (A) (A) (A) (A)
       Virtual   (A) (A) (A) (A) (A) (A) (A) (A) (A) (A) (A) (A)
                 (A) (A) (A) (A) (A) (A) (A) (A) (A) (A) (A) (A)
                 (A) (A) (A) (A) (A) (A) (A) (A) (A) (A) (A) (A)
                 (A) (A) (A) (A) (A) (A) (A) (A) (A) (A) (A) (A)
                 (A) (A) (A) (A) (A) (A) (A) (A) (A) (A) (A) (A)
                 (A)
 The electronic state is 1-A.
 Alpha  occ. eigenvalues --  -19.17486 -10.24472  -4.52709  -2.65684  -2.65114
 Alpha  occ. eigenvalues --   -2.64975  -0.94006  -0.70166  -0.52353  -0.49751
 Alpha  occ. eigenvalues --   -0.49509  -0.47391  -0.47382  -0.41553  -0.40337
 Alpha  occ. eigenvalues --   -0.39076  -0.34429  -0.28982  -0.27323
 Alpha virt. eigenvalues --    0.00100   0.00905   0.01482   0.07640   0.13123
 Alpha virt. eigenvalues --    0.14147   0.14196   0.19175   0.23339   0.44123
 Alpha virt. eigenvalues --    0.44198   0.47965   0.48110   0.49290   0.59898
 Alpha virt. eigenvalues --    0.62375   0.65148   0.66594   0.68134   0.68165
 Alpha virt. eigenvalues --    0.74292   0.82038   0.82528   0.92492   0.98011
 Alpha virt. eigenvalues --    1.04140   1.07356   1.11982   1.26540   1.27631
 Alpha virt. eigenvalues --    1.42735   1.46794   1.52167   1.53427   1.56611
 Alpha virt. eigenvalues --    1.56859   1.56946   1.56954   1.59322   1.60663
 Alpha virt. eigenvalues --    1.69234   1.77212   1.77398   1.95852   1.97358
 Alpha virt. eigenvalues --    1.97435   2.20053   2.22211   2.37713   2.41753
 Alpha virt. eigenvalues --    2.41884   2.70840   2.74872   2.90239   2.90264
 Alpha virt. eigenvalues --    2.98616   2.99503   3.13563   3.73624  33.38669
 Alpha virt. eigenvalues --  121.49660
          Condensed to atoms (all electrons):
               1          2          3          4          5          6
     1  C    4.962205   0.311834   0.367187   0.375692   0.372699  -0.007055
     2  Hg   0.311834  19.142734  -0.026271  -0.035142  -0.033911   0.216136
     3  H    0.367187  -0.026271   0.596803  -0.013395  -0.014492   0.000191
     4  H    0.375692  -0.035142  -0.013395   0.599911  -0.016130   0.000121
     5  H    0.372699  -0.033911  -0.014492  -0.016130   0.602241   0.000127
     6  O   -0.007055   0.216136   0.000191   0.000121   0.000127   8.034050
     7  H    0.000985  -0.033114  -0.000001  -0.000120  -0.000062   0.283423
               7
     1  C    0.000985
     2  Hg  -0.033114
     3  H   -0.000001
     4  H   -0.000120
     5  H   -0.000062
     6  O    0.283423
     7  H    0.564650
 Mulliken charges:
               1
     1  C   -0.383548
     2  Hg   0.457734
     3  H    0.089978
     4  H    0.089062
     5  H    0.089528
     6  O   -0.526993
     7  H    0.184239
 Sum of Mulliken charges =  -0.00000
 Mulliken charges with hydrogens summed into heavy atoms:
               1
     1  C   -0.114980
     2  Hg   0.457734
     6  O   -0.342754
 Electronic spatial extent (au):  <R**2>=            387.6043
 Charge=             -0.0000 electrons
 Dipole moment (field-independent basis, Debye):
    X=             -1.8445    Y=              1.3332    Z=              0.0005  Tot=              2.2759
 Quadrupole moment (field-independent basis, Debye-Ang):
   XX=            -41.8107   YY=            -34.2518   ZZ=            -36.3274
   XY=              3.8097   XZ=              0.0050   YZ=             -0.0007
 Traceless Quadrupole moment (field-independent basis, Debye-Ang):
   XX=             -4.3474   YY=              3.2115   ZZ=              1.1359
   XY=              3.8097   XZ=              0.0050   YZ=             -0.0007
 Octapole moment (field-independent basis, Debye-Ang**2):
  XXX=              5.2415  YYY=             -0.5049  ZZZ=              0.5565  XYY=              6.3795
  XXY=              8.5512  XXZ=             -0.0246  XZZ=              2.3610  YZZ=             -0.0032
  YYZ=             -0.5419  XYZ=             -0.0102
 Hexadecapole moment (field-independent basis, Debye-Ang**3):
 XXXX=           -436.7416 YYYY=            -43.9676 ZZZZ=            -44.6021 XXXY=             22.8716
 XXXZ=              0.0862 YYYX=              5.2787 YYYZ=             -0.1007 ZZZX=             -1.4166
 ZZZY=              0.0265 XXYY=            -67.3358 XXZZ=            -76.0507 YYZZ=            -14.9308
 XXYZ=              0.0623 YYXZ=              1.4118 ZZXY=             -0.4165
 N-N= 1.129889227196D+02 E-N=-8.172609491410D+02  KE= 1.653636145933D+02
 PrsmSu:  requested number of processors reduced to:  13 ShMem   1 Linda.
   1 Symmetry operations used in ECPInt.
 ECPInt:  NShTT=     666 NPrTT=    2067 LenC2=     666 LenP2D=    1822.
 LDataN:  DoStor=T MaxTD1= 9 Len=  602
 Calling FoFJK, ICntrl=      2127 FMM=F ISym2X=0 I1Cent= 0 IOpClX= 0 NMat=1 NMatS=1 NMatT=0.
 Defaulting to unpruned grid for atomic number  80.
 Defaulting to unpruned grid for atomic number  80.
 Defaulting to unpruned grid for atomic number  80.
 Defaulting to unpruned grid for atomic number  80.
 Defaulting to unpruned grid for atomic number  80.
 Defaulting to unpruned grid for atomic number  80.
 Defaulting to unpruned grid for atomic number  80.
 Defaulting to unpruned grid for atomic number  80.
 Defaulting to unpruned grid for atomic number  80.
 Defaulting to unpruned grid for atomic number  80.
 Defaulting to unpruned grid for atomic number  80.
 Defaulting to unpruned grid for atomic number  80.
 Defaulting to unpruned grid for atomic number  80.
 Defaulting to unpruned grid for atomic number  80.
 Defaulting to unpruned grid for atomic number  80.
 Defaulting to unpruned grid for atomic number  80.
 Defaulting to unpruned grid for atomic number  80.
 Defaulting to unpruned grid for atomic number  80.
 Defaulting to unpruned grid for atomic number  80.
 Defaulting to unpruned grid for atomic number  80.
 Defaulting to unpruned grid for atomic number  80.
 Defaulting to unpruned grid for atomic number  80.
 Defaulting to unpruned grid for atomic number  80.
 Defaulting to unpruned grid for atomic number  80.
 ***** Axes restored to original set *****
 -------------------------------------------------------------------
 Center     Atomic                   Forces (Hartrees/Bohr)
 Number     Number              X              Y              Z
 -------------------------------------------------------------------
      1        6           0.003214300    0.002116751   -0.000341159
      2       80          -0.013652102   -0.002658320    0.000114657
      3        1           0.001764482   -0.006153126   -0.001990940
      4        1           0.001294399    0.005162767   -0.004198923
      5        1           0.001391995    0.001629999    0.006440664
      6        8           0.009637657   -0.023275662   -0.000008524
      7        1          -0.003650731    0.023177592   -0.000015775
 -------------------------------------------------------------------
 Cartesian Forces:  Max     0.023275662 RMS     0.008537128

 GradGradGradGradGradGradGradGradGradGradGradGradGradGradGradGradGradGrad
 Berny optimization.
 FormGI is forming the generalized inverse of G from B-inverse, IUseBI=4.
 Internal  Forces:  Max     0.022966075 RMS     0.007009904
 Search for a local minimum.
 Step number   1 out of a maximum of   28
 All quantities printed in internal units (Hartrees-Bohrs-Radians)
 Mixed Optimization -- RFO/linear search
 Second derivative matrix not updated -- first step.
 The second derivative matrix:
                          R1        R2        R3        R4        R5
           R1           0.15481
           R2           0.00000   0.32664
           R3           0.00000   0.00000   0.32665
           R4           0.00000   0.00000   0.00000   0.32665
           R5           0.00000   0.00000   0.00000   0.00000   0.20663
           R6           0.00000   0.00000   0.00000   0.00000   0.00000
           A1           0.00000   0.00000   0.00000   0.00000   0.00000
           A2           0.00000   0.00000   0.00000   0.00000   0.00000
           A3           0.00000   0.00000   0.00000   0.00000   0.00000
           A4           0.00000   0.00000   0.00000   0.00000   0.00000
           A5           0.00000   0.00000   0.00000   0.00000   0.00000
           A6           0.00000   0.00000   0.00000   0.00000   0.00000
           A7           0.00000   0.00000   0.00000   0.00000   0.00000
           A8           0.00000   0.00000   0.00000   0.00000   0.00000
           A9           0.00000   0.00000   0.00000   0.00000   0.00000
           D1           0.00000   0.00000   0.00000   0.00000   0.00000
           D2           0.00000   0.00000   0.00000   0.00000   0.00000
           D3           0.00000   0.00000   0.00000   0.00000   0.00000
                          R6        A1        A2        A3        A4
           R6           0.49447
           A1           0.00000   0.16000
           A2           0.00000   0.00000   0.16000
           A3           0.00000   0.00000   0.00000   0.16000
           A4           0.00000   0.00000   0.00000   0.00000   0.16000
           A5           0.00000   0.00000   0.00000   0.00000   0.00000
           A6           0.00000   0.00000   0.00000   0.00000   0.00000
           A7           0.00000   0.00000   0.00000   0.00000   0.00000
           A8           0.00000   0.00000   0.00000   0.00000   0.00000
           A9           0.00000   0.00000   0.00000   0.00000   0.00000
           D1           0.00000   0.00000   0.00000   0.00000   0.00000
           D2           0.00000   0.00000   0.00000   0.00000   0.00000
           D3           0.00000   0.00000   0.00000   0.00000   0.00000
                          A5        A6        A7        A8        A9
           A5           0.16000
           A6           0.00000   0.16000
           A7           0.00000   0.00000   0.16000
           A8           0.00000   0.00000   0.00000   0.00230
           A9           0.00000   0.00000   0.00000   0.00000   0.00230
           D1           0.00000   0.00000   0.00000   0.00000   0.00000
           D2           0.00000   0.00000   0.00000   0.00000   0.00000
           D3           0.00000   0.00000   0.00000   0.00000   0.00000
                          D1        D2        D3
           D1           0.00230
           D2           0.00000   0.00230
           D3           0.00000   0.00000   0.00230
 ITU=  0
     Eigenvalues ---    0.00230   0.00230   0.00230   0.09961   0.10098
     Eigenvalues ---    0.15481   0.16000   0.16000   0.16000   0.16000
     Eigenvalues ---    0.20663   0.32664   0.32665   0.32665   0.49447
 RFO step:  Lambda=-6.65173503D-03 EMin= 2.30000000D-03
 Linear search not attempted -- first point.
 Maximum step size (   0.300) exceeded in Quadratic search.
    -- Step size scaled by   0.447
 Iteration  1 RMS(Cart)=  0.11929127 RMS(Int)=  0.02466541
 Iteration  2 RMS(Cart)=  0.05408553 RMS(Int)=  0.00230473
 Iteration  3 RMS(Cart)=  0.00281765 RMS(Int)=  0.00148501
 Iteration  4 RMS(Cart)=  0.00000074 RMS(Int)=  0.00148501
 Variable       Old X    -DE/DX   Delta X   Delta X   Delta X     New X
                                 (Linear)    (Quad)   (Total)
    R1        3.95643  -0.00792   0.00000  -0.02191  -0.02188   3.93456
    R2        2.09645  -0.00660   0.00000  -0.00884  -0.00884   2.08761
    R3        2.09644  -0.00676   0.00000  -0.00906  -0.00906   2.08738
    R4        2.09643  -0.00675   0.00000  -0.00904  -0.00904   2.08739
    R5        3.75113   0.00594   0.00000   0.01244   0.01240   3.76354
    R6        1.87127  -0.02297   0.00000  -0.02047  -0.02047   1.85081
    A1        1.91053   0.00176   0.00000   0.00507   0.00643   1.91696
    A2        1.91047  -0.00004   0.00000  -0.00049  -0.00071   1.90977
    A3        1.91050   0.00074   0.00000   0.00199   0.00054   1.91104
    A4        1.91076  -0.00088   0.00000  -0.00239   0.00024   1.91100
    A5        1.91078  -0.00061   0.00000  -0.00089  -0.00103   1.90975
    A6        1.91076  -0.00096   0.00000  -0.00329  -0.00552   1.90524
    A7        1.82351   0.00902   0.00000   0.02416   0.02416   1.84767
    A8        3.14112   0.00606   0.00000   0.29671   0.29584   3.43696
    A9        3.14159  -0.00005   0.00000  -0.00181  -0.00190   3.13969
    D1        2.82291   0.00006   0.00000   0.01484   0.01249   2.83540
    D2        0.72849   0.00045   0.00000   0.03271   0.03652   0.76501
    D3       -1.36575  -0.00051   0.00000  -0.04802  -0.04974  -1.41549
         Item               Value     Threshold  Converged?
 Maximum Force            0.022966     0.000450     NO 
 RMS     Force            0.007010     0.000300     NO 
 Maximum Displacement     0.531359     0.001800     NO 
 RMS     Displacement     0.168646     0.001200     NO 
 Predicted change in Energy=-2.614624D-03
 GradGradGradGradGradGradGradGradGradGradGradGradGradGradGradGradGradGrad

                          Input orientation:                          
 ---------------------------------------------------------------------
 Center     Atomic      Atomic             Coordinates (Angstroms)
 Number     Number       Type             X           Y           Z
 ---------------------------------------------------------------------
      1          6           0       -9.581560    2.774814    0.000667
      2         80           0       -7.499909    2.732677    0.000523
      3          1           0       -9.936306    3.769444    0.325113
      4          1           0       -9.964501    2.003280    0.692199
      5          1           0       -9.954550    2.566106   -1.017890
      6          8           0       -5.583233    3.273729   -0.000812
      7          1           0       -5.069640    2.439789    0.000249
 ---------------------------------------------------------------------
                    Distance matrix (angstroms):
                    1          2          3          4          5
     1  C    0.000000
     2  Hg   2.082077   0.000000
     3  H    1.104717   2.667635   0.000000
     4  H    1.104593   2.661701   1.804129   0.000000
     5  H    1.104599   2.662738   1.803334   1.800354   0.000000
     6  O    4.029334   1.991578   4.393313   4.614088   4.543522
     7  H    4.524341   2.447854   5.055488   4.962761   4.991484
                    6          7
     6  O    0.000000
     7  H    0.979405   0.000000
 Stoichiometry    CH4HgO
 Framework group  C1[X(CH4HgO)]
 Deg. of freedom    15
 Full point group                 C1      NOp   1
 Largest Abelian subgroup         C1      NOp   1
 Largest concise Abelian subgroup C1      NOp   1
                         Standard orientation:                         
 ---------------------------------------------------------------------
 Center     Atomic      Atomic             Coordinates (Angstroms)
 Number     Number       Type             X           Y           Z
 ---------------------------------------------------------------------
      1          6           0       -2.052410   -0.181383    0.000039
      2         80           0        0.017113    0.046916   -0.000079
      3          1           0       -2.316781   -1.203428   -0.325435
      4          1           0       -2.503044    0.553514   -0.690599
      5          1           0       -2.442337   -0.007988    1.018877
      6          8           0        1.974525   -0.320401    0.000386
      7          1           0        2.411409    0.556163    0.000154
 ---------------------------------------------------------------------
 Rotational constants (GHZ):          82.5875427           3.6588639           3.5848426
 Standard basis: def2SVP (5D, 7F)
 There are    87 symmetry adapted cartesian basis functions of A   symmetry.
 There are    80 symmetry adapted basis functions of A   symmetry.
    80 basis functions,   143 primitive gaussians,    87 cartesian basis functions
    19 alpha electrons       19 beta electrons
       nuclear repulsion energy       113.2159923568 Hartrees.
 NAtoms=    7 NActive=    7 NUniq=    7 SFac= 1.00D+00 NAtFMM=   60 NAOKFM=F Big=F
 Integral buffers will be    131072 words long.
 Raffenetti 2 integral format.
 Two-electron integral symmetry is turned on.
 One-electron integrals computed using PRISM.
 PrsmSu:  requested number of processors reduced to:  13 ShMem   1 Linda.
   1 Symmetry operations used in ECPInt.
 ECPInt:  NShTT=     666 NPrTT=    2067 LenC2=     666 LenP2D=    1822.
 LDataN:  DoStor=T MaxTD1= 8 Len=  415
 NBasis=    80 RedAO= T EigKep=  7.68D-03  NBF=    80
 NBsUse=    80 1.00D-06 EigRej= -1.00D+00 NBFU=    80
 Defaulting to unpruned grid for atomic number  80.
 Initial guess from the checkpoint file:  "ch3hgoh_gas_pbeo_def2svp.chk"
 B after Tr=    -0.000000   -0.000000    0.000000
         Rot=    0.999999   -0.000094   -0.000013   -0.001115 Ang=  -0.13 deg.
 ExpMin= 5.64D-02 ExpMax= 2.27D+03 ExpMxC= 3.41D+02 IAcc=2 IRadAn=         4 AccDes= 0.00D+00
 Harris functional with IExCor= 1009 and IRadAn=       4 diagonalized for initial guess.
 HarFok:  IExCor= 1009 AccDes= 0.00D+00 IRadAn=         4 IDoV= 1 UseB2=F ITyADJ=14
 ICtDFT=  3500011 ScaDFX=  1.000000  1.000000  1.000000  1.000000
 Defaulting to unpruned grid for atomic number  80.
 FoFCou: FMM=F IPFlag=           0 FMFlag=      100000 FMFlg1=           0
         NFxFlg=           0 DoJE=T BraDBF=F KetDBF=T FulRan=T
         wScrn=  0.000000 ICntrl=       500 IOpCl=  0 I1Cent=   200000004 NGrid=           0
         NMat0=    1 NMatS0=      1 NMatT0=    0 NMatD0=    1 NMtDS0=    0 NMtDT0=    0
 Petite list used in FoFCou.
 Keep R1 ints in memory in canonical form, NReq=27063669.
 Requested convergence on RMS density matrix=1.00D-08 within 128 cycles.
 Requested convergence on MAX density matrix=1.00D-06.
 Requested convergence on             energy=1.00D-06.
 No special actions if energy rises.
 Integral accuracy reduced to 1.0D-05 until final iterations.
 Defaulting to unpruned grid for atomic number  80.
 Defaulting to unpruned grid for atomic number  80.
 Defaulting to unpruned grid for atomic number  80.
 Defaulting to unpruned grid for atomic number  80.
 Defaulting to unpruned grid for atomic number  80.
 Defaulting to unpruned grid for atomic number  80.
 Defaulting to unpruned grid for atomic number  80.
 Defaulting to unpruned grid for atomic number  80.
 Defaulting to unpruned grid for atomic number  80.
 Defaulting to unpruned grid for atomic number  80.
 Defaulting to unpruned grid for atomic number  80.
 Defaulting to unpruned grid for atomic number  80.
 Defaulting to unpruned grid for atomic number  80.
 Defaulting to unpruned grid for atomic number  80.
 Defaulting to unpruned grid for atomic number  80.
 Defaulting to unpruned grid for atomic number  80.
 Defaulting to unpruned grid for atomic number  80.
 Defaulting to unpruned grid for atomic number  80.
 Defaulting to unpruned grid for atomic number  80.
 Defaulting to unpruned grid for atomic number  80.
 Defaulting to unpruned grid for atomic number  80.
 Defaulting to unpruned grid for atomic number  80.
 Defaulting to unpruned grid for atomic number  80.
 Defaulting to unpruned grid for atomic number  80.
 Initial convergence to 1.0D-05 achieved.  Increase integral accuracy.
 SCF Done:  E(RPBE1PBE) =  -268.969237698     A.U. after   14 cycles
            NFock= 14  Conv=0.41D-08     -V/T= 2.6260
 PrsmSu:  requested number of processors reduced to:  13 ShMem   1 Linda.
   1 Symmetry operations used in ECPInt.
 ECPInt:  NShTT=     666 NPrTT=    2067 LenC2=     666 LenP2D=    1822.
 LDataN:  DoStor=T MaxTD1= 9 Len=  602
 Calling FoFJK, ICntrl=      2127 FMM=F ISym2X=0 I1Cent= 0 IOpClX= 0 NMat=1 NMatS=1 NMatT=0.
 Defaulting to unpruned grid for atomic number  80.
 Defaulting to unpruned grid for atomic number  80.
 Defaulting to unpruned grid for atomic number  80.
 Defaulting to unpruned grid for atomic number  80.
 Defaulting to unpruned grid for atomic number  80.
 Defaulting to unpruned grid for atomic number  80.
 Defaulting to unpruned grid for atomic number  80.
 Defaulting to unpruned grid for atomic number  80.
 Defaulting to unpruned grid for atomic number  80.
 Defaulting to unpruned grid for atomic number  80.
 Defaulting to unpruned grid for atomic number  80.
 Defaulting to unpruned grid for atomic number  80.
 Defaulting to unpruned grid for atomic number  80.
 Defaulting to unpruned grid for atomic number  80.
 Defaulting to unpruned grid for atomic number  80.
 Defaulting to unpruned grid for atomic number  80.
 Defaulting to unpruned grid for atomic number  80.
 Defaulting to unpruned grid for atomic number  80.
 Defaulting to unpruned grid for atomic number  80.
 Defaulting to unpruned grid for atomic number  80.
 Defaulting to unpruned grid for atomic number  80.
 Defaulting to unpruned grid for atomic number  80.
 Defaulting to unpruned grid for atomic number  80.
 Defaulting to unpruned grid for atomic number  80.
 ***** Axes restored to original set *****
 -------------------------------------------------------------------
 Center     Atomic                   Forces (Hartrees/Bohr)
 Number     Number              X              Y              Z
 -------------------------------------------------------------------
      1        6           0.000296712   -0.012077741   -0.000486879
      2       80          -0.010954073    0.020606581    0.000121791
      3        1           0.003504105   -0.002738878   -0.000618417
      4        1          -0.001442979    0.003377524   -0.002675618
      5        1           0.000074861    0.000799973    0.003678602
      6        8           0.009468370   -0.024753464   -0.000027065
      7        1          -0.000946995    0.014786005    0.000007587
 -------------------------------------------------------------------
 Cartesian Forces:  Max     0.024753464 RMS     0.008911553

 GradGradGradGradGradGradGradGradGradGradGradGradGradGradGradGradGradGrad
 Berny optimization.
 Using GEDIIS/GDIIS optimizer.
 FormGI is forming the generalized inverse of G from B-inverse, IUseBI=4.
 Internal  Forces:  Max     0.031302911 RMS     0.009089313
 Search for a local minimum.
 Step number   2 out of a maximum of   28
 All quantities printed in internal units (Hartrees-Bohrs-Radians)
 Mixed Optimization -- RFO/linear search
 Update second derivatives using D2CorX and points    2    1
 DE=  2.92D-03 DEPred=-2.61D-03 R=-1.12D+00
 Trust test=-1.12D+00 RLast= 3.06D-01 DXMaxT set to 1.50D-01
 The second derivative matrix:
                          R1        R2        R3        R4        R5
           R1           0.14097
           R2          -0.01254   0.31555
           R3          -0.01271  -0.01129   0.31517
           R4          -0.01270  -0.01128  -0.01147   0.31520
           R5           0.01208   0.01035   0.01060   0.01058   0.19736
           R6          -0.04397  -0.03889  -0.03958  -0.03953   0.03629
           A1           0.00122   0.00221   0.00202   0.00205  -0.00343
           A2           0.00212   0.00097   0.00117   0.00114   0.00020
           A3           0.00123   0.00079   0.00086   0.00085  -0.00038
           A4          -0.00005   0.00003   0.00002   0.00002  -0.00012
           A5          -0.00116  -0.00087  -0.00092  -0.00091   0.00063
           A6          -0.00337  -0.00314  -0.00317  -0.00317   0.00313
           A7           0.02024   0.01671   0.01724   0.01719  -0.01414
           A8          -0.01362  -0.00629  -0.00754  -0.00738  -0.00111
           A9           0.00000  -0.00000  -0.00000  -0.00000   0.00001
           D1          -0.00013  -0.00003  -0.00005  -0.00004  -0.00008
           D2          -0.00044  -0.00011  -0.00016  -0.00016  -0.00024
           D3           0.00054   0.00012   0.00019   0.00018   0.00033
                          R6        A1        A2        A3        A4
           R6           0.35815
           A1           0.00775   0.16430
           A2           0.00340  -0.00400   0.16298
           A3           0.00277  -0.00140   0.00093   0.16027
           A4           0.00012   0.00031  -0.00026  -0.00008   0.16002
           A5          -0.00306   0.00082  -0.00045  -0.00011   0.00005
           A6          -0.01102  -0.00005   0.00082   0.00040  -0.00004
           A7           0.05855  -0.00834   0.00257   0.00013  -0.00038
           A8          -0.02200   0.02539  -0.01885  -0.00589   0.00162
           A9          -0.00002  -0.00003   0.00003   0.00001  -0.00000
           D1          -0.00010   0.00038  -0.00030  -0.00010   0.00003
           D2          -0.00037   0.00119  -0.00093  -0.00030   0.00008
           D3           0.00042  -0.00154   0.00121   0.00039  -0.00010
                          A5        A6        A7        A8        A9
           A5           0.16002
           A6          -0.00034   0.15920
           A7           0.00063   0.00545   0.14015
           A8           0.00282  -0.00522  -0.01609   0.12171
           A9          -0.00000   0.00000   0.00004  -0.00017   0.00230
           D1           0.00005  -0.00006  -0.00036   0.00190  -0.00000
           D2           0.00015  -0.00020  -0.00107   0.00588  -0.00001
           D3          -0.00020   0.00025   0.00143  -0.00766   0.00001
                          D1        D2        D3
           D1           0.00233
           D2           0.00009   0.00259
           D3          -0.00012  -0.00037   0.00278
 ITU= -1  0
 Use linear search instead of GDIIS.
     Eigenvalues ---    0.00230   0.00230   0.06663   0.08566   0.10288
     Eigenvalues ---    0.12174   0.15791   0.16000   0.16000   0.18642
     Eigenvalues ---    0.19937   0.28718   0.32665   0.32666   0.41094
 RFO step:  Lambda=-6.77699088D-03 EMin= 2.29996109D-03
 Quartic linear search produced a step of -0.75225.
 Maximum step size (   0.150) exceeded in Quadratic search.
    -- Step size scaled by   0.533
 Iteration  1 RMS(Cart)=  0.10288916 RMS(Int)=  0.01438943
 Iteration  2 RMS(Cart)=  0.03121307 RMS(Int)=  0.00059843
 Iteration  3 RMS(Cart)=  0.00079811 RMS(Int)=  0.00035744
 Iteration  4 RMS(Cart)=  0.00000006 RMS(Int)=  0.00035744
 Variable       Old X    -DE/DX   Delta X   Delta X   Delta X     New X
                                 (Linear)    (Quad)   (Total)
    R1        3.93456  -0.00267   0.01646  -0.07011  -0.05365   3.88090
    R2        2.08761  -0.00378   0.00665  -0.02938  -0.02274   2.06488
    R3        2.08738  -0.00353   0.00682  -0.02999  -0.02317   2.06421
    R4        2.08739  -0.00357   0.00680  -0.02994  -0.02313   2.06425
    R5        3.76354   0.00552  -0.00933   0.04227   0.03294   3.79648
    R6        1.85081  -0.01309   0.01540  -0.06835  -0.05296   1.79785
    A1        1.91696  -0.00645  -0.00484   0.01254   0.00735   1.92432
    A2        1.90977   0.00586   0.00053   0.00344   0.00421   1.91397
    A3        1.91104   0.00254  -0.00041   0.00546   0.00515   1.91618
    A4        1.91100  -0.00139  -0.00018  -0.00338  -0.00376   1.90724
    A5        1.90975  -0.00144   0.00077  -0.00565  -0.00536   1.90438
    A6        1.90524   0.00093   0.00415  -0.01257  -0.00778   1.89747
    A7        1.84767   0.01287  -0.01818   0.08532   0.06715   1.91482
    A8        3.43696  -0.03130  -0.22255  -0.02790  -0.25018   3.18678
    A9        3.13969   0.00001   0.00143  -0.00258  -0.00115   3.13855
    D1        2.83540  -0.00054  -0.00940   0.00034  -0.00930   2.82611
    D2        0.76501  -0.00141  -0.02747  -0.00890  -0.03706   0.72796
    D3       -1.41549   0.00190   0.03741   0.00814   0.04647  -1.36901
         Item               Value     Threshold  Converged?
 Maximum Force            0.031303     0.000450     NO 
 RMS     Force            0.009089     0.000300     NO 
 Maximum Displacement     0.417127     0.001800     NO 
 RMS     Displacement     0.129295     0.001200     NO 
 Predicted change in Energy=-3.022154D-03
 GradGradGradGradGradGradGradGradGradGradGradGradGradGradGradGradGradGrad

                          Input orientation:                          
 ---------------------------------------------------------------------
 Center     Atomic      Atomic             Coordinates (Angstroms)
 Number     Number       Type             X           Y           Z
 ---------------------------------------------------------------------
      1          6           0       -9.576651    2.785234    0.001083
      2         80           0       -7.529864    2.953411    0.001103
      3          1           0      -10.033439    3.725018    0.320634
      4          1           0       -9.879855    1.986953    0.682263
      5          1           0       -9.927610    2.540533   -1.004000
      6          8           0       -5.537076    3.208200   -0.000930
      7          1           0       -5.105204    2.360491   -0.000103
 ---------------------------------------------------------------------
                    Distance matrix (angstroms):
                    1          2          3          4          5
     1  C    0.000000
     2  Hg   2.053685   0.000000
     3  H    1.092686   2.639198   0.000000
     4  H    1.092332   2.630679   1.781918   0.000000
     5  H    1.092356   2.632468   1.780129   1.775448   0.000000
     6  O    4.061659   2.009011   4.537377   4.562666   4.552880
     7  H    4.491576   2.496104   5.123701   4.837607   4.929080
                    6          7
     6  O    0.000000
     7  H    0.951380   0.000000
 Stoichiometry    CH4HgO
 Framework group  C1[X(CH4HgO)]
 Deg. of freedom    15
 Full point group                 C1      NOp   1
 Largest Abelian subgroup         C1      NOp   1
 Largest concise Abelian subgroup C1      NOp   1
                         Standard orientation:                         
 ---------------------------------------------------------------------
 Center     Atomic      Atomic             Coordinates (Angstroms)
 Number     Number       Type             X           Y           Z
 ---------------------------------------------------------------------
      1          6           0       -2.041671    0.009497    0.000442
      2         80           0        0.011988   -0.000830   -0.000226
      3          1           0       -2.424962   -0.963434   -0.316507
      4          1           0       -2.405571    0.780368   -0.682584
      5          1           0       -2.410074    0.229050    1.005090
      6          8           0        2.018467   -0.101658    0.001405
      7          1           0        2.383890    0.776738   -0.001778
 ---------------------------------------------------------------------
 Rotational constants (GHZ):         128.2567426           3.6086523           3.5890981
 Standard basis: def2SVP (5D, 7F)
 There are    87 symmetry adapted cartesian basis functions of A   symmetry.
 There are    80 symmetry adapted basis functions of A   symmetry.
    80 basis functions,   143 primitive gaussians,    87 cartesian basis functions
    19 alpha electrons       19 beta electrons
       nuclear repulsion energy       113.4910377453 Hartrees.
 NAtoms=    7 NActive=    7 NUniq=    7 SFac= 1.00D+00 NAtFMM=   60 NAOKFM=F Big=F
 Integral buffers will be    131072 words long.
 Raffenetti 2 integral format.
 Two-electron integral symmetry is turned on.
 One-electron integrals computed using PRISM.
 PrsmSu:  requested number of processors reduced to:  13 ShMem   1 Linda.
   1 Symmetry operations used in ECPInt.
 ECPInt:  NShTT=     666 NPrTT=    2067 LenC2=     666 LenP2D=    1826.
 LDataN:  DoStor=T MaxTD1= 8 Len=  415
 NBasis=    80 RedAO= T EigKep=  7.29D-03  NBF=    80
 NBsUse=    80 1.00D-06 EigRej= -1.00D+00 NBFU=    80
 Defaulting to unpruned grid for atomic number  80.
 Lowest energy guess from the checkpoint file:  "ch3hgoh_gas_pbeo_def2svp.chk"
 B after Tr=     0.000000   -0.000000   -0.000000
         Rot=    0.999998    0.001608   -0.000023    0.000767 Ang=   0.20 deg.
 B after Tr=     0.000000    0.000000   -0.000000
         Rot=    1.000000   -0.000000    0.000000   -0.000000 Ang=   0.00 deg.
 Keep R1 ints in memory in canonical form, NReq=27063669.
 Requested convergence on RMS density matrix=1.00D-08 within 128 cycles.
 Requested convergence on MAX density matrix=1.00D-06.
 Requested convergence on             energy=1.00D-06.
 No special actions if energy rises.
 Integral accuracy reduced to 1.0D-05 until final iterations.
 Defaulting to unpruned grid for atomic number  80.
 Defaulting to unpruned grid for atomic number  80.
 Defaulting to unpruned grid for atomic number  80.
 Defaulting to unpruned grid for atomic number  80.
 Defaulting to unpruned grid for atomic number  80.
 Defaulting to unpruned grid for atomic number  80.
 Defaulting to unpruned grid for atomic number  80.
 Defaulting to unpruned grid for atomic number  80.
 Defaulting to unpruned grid for atomic number  80.
 Defaulting to unpruned grid for atomic number  80.
 Defaulting to unpruned grid for atomic number  80.
 Defaulting to unpruned grid for atomic number  80.
 Defaulting to unpruned grid for atomic number  80.
 Defaulting to unpruned grid for atomic number  80.
 Defaulting to unpruned grid for atomic number  80.
 Defaulting to unpruned grid for atomic number  80.
 Defaulting to unpruned grid for atomic number  80.
 Defaulting to unpruned grid for atomic number  80.
 Defaulting to unpruned grid for atomic number  80.
 Defaulting to unpruned grid for atomic number  80.
 Defaulting to unpruned grid for atomic number  80.
 Defaulting to unpruned grid for atomic number  80.
 Defaulting to unpruned grid for atomic number  80.
 Defaulting to unpruned grid for atomic number  80.
 Initial convergence to 1.0D-05 achieved.  Increase integral accuracy.
 SCF Done:  E(RPBE1PBE) =  -268.973495457     A.U. after   13 cycles
            NFock= 13  Conv=0.21D-08     -V/T= 2.6254
 PrsmSu:  requested number of processors reduced to:  13 ShMem   1 Linda.
   1 Symmetry operations used in ECPInt.
 ECPInt:  NShTT=     666 NPrTT=    2067 LenC2=     666 LenP2D=    1826.
 LDataN:  DoStor=T MaxTD1= 9 Len=  602
 Calling FoFJK, ICntrl=      2127 FMM=F ISym2X=0 I1Cent= 0 IOpClX= 0 NMat=1 NMatS=1 NMatT=0.
 Defaulting to unpruned grid for atomic number  80.
 Defaulting to unpruned grid for atomic number  80.
 Defaulting to unpruned grid for atomic number  80.
 Defaulting to unpruned grid for atomic number  80.
 Defaulting to unpruned grid for atomic number  80.
 Defaulting to unpruned grid for atomic number  80.
 Defaulting to unpruned grid for atomic number  80.
 Defaulting to unpruned grid for atomic number  80.
 Defaulting to unpruned grid for atomic number  80.
 Defaulting to unpruned grid for atomic number  80.
 Defaulting to unpruned grid for atomic number  80.
 Defaulting to unpruned grid for atomic number  80.
 Defaulting to unpruned grid for atomic number  80.
 Defaulting to unpruned grid for atomic number  80.
 Defaulting to unpruned grid for atomic number  80.
 Defaulting to unpruned grid for atomic number  80.
 Defaulting to unpruned grid for atomic number  80.
 Defaulting to unpruned grid for atomic number  80.
 Defaulting to unpruned grid for atomic number  80.
 Defaulting to unpruned grid for atomic number  80.
 Defaulting to unpruned grid for atomic number  80.
 Defaulting to unpruned grid for atomic number  80.
 Defaulting to unpruned grid for atomic number  80.
 Defaulting to unpruned grid for atomic number  80.
 ***** Axes restored to original set *****
 -------------------------------------------------------------------
 Center     Atomic                   Forces (Hartrees/Bohr)
 Number     Number              X              Y              Z
 -------------------------------------------------------------------
      1        6           0.002124247   -0.000142907   -0.000566997
      2       80           0.010039755    0.000884059    0.000073101
      3        1          -0.002084689    0.003712573    0.001521850
      4        1          -0.001729689   -0.002992365    0.003388910
      5        1          -0.001843850   -0.000658082   -0.004426017
      6        8          -0.013489092    0.011122249   -0.000017092
      7        1           0.006983318   -0.011925527    0.000026245
 -------------------------------------------------------------------
 Cartesian Forces:  Max     0.013489092 RMS     0.005650041

 GradGradGradGradGradGradGradGradGradGradGradGradGradGradGradGradGradGrad
 Berny optimization.
 Using GEDIIS/GDIIS optimizer.
 FormGI is forming the generalized inverse of G from B-inverse, IUseBI=4.
 Internal  Forces:  Max     0.013793256 RMS     0.004202465
 Search for a local minimum.
 Step number   3 out of a maximum of   28
 All quantities printed in internal units (Hartrees-Bohrs-Radians)
 Mixed Optimization -- RFO/linear search
 Update second derivatives using D2CorX and points    2    1    3
 DE= -1.33D-03 DEPred=-3.02D-03 R= 4.42D-01
 Trust test= 4.42D-01 RLast= 1.65D-01 DXMaxT set to 1.50D-01
 The second derivative matrix:
                          R1        R2        R3        R4        R5
           R1           0.15466
           R2           0.00186   0.33071
           R3           0.00228   0.00448   0.33157
           R4           0.00234   0.00456   0.00500   0.33173
           R5          -0.00634  -0.00906  -0.00957  -0.00967   0.22216
           R6           0.00217   0.00958   0.01091   0.01116  -0.02593
           A1           0.00112   0.00198   0.00189   0.00192  -0.00346
           A2           0.00166   0.00061   0.00069   0.00066   0.00096
           A3           0.00105   0.00067   0.00068   0.00067  -0.00006
           A4          -0.00065  -0.00067  -0.00066  -0.00066   0.00063
           A5          -0.00119  -0.00096  -0.00097  -0.00096   0.00061
           A6          -0.00207  -0.00172  -0.00172  -0.00172   0.00142
           A7           0.01240   0.00876   0.00874   0.00865  -0.00328
           A8          -0.00685   0.00039  -0.00022  -0.00003  -0.01085
           A9           0.00003   0.00002   0.00002   0.00002  -0.00002
           D1          -0.00028  -0.00020  -0.00021  -0.00021   0.00010
           D2           0.00040   0.00075   0.00075   0.00076  -0.00140
           D3          -0.00016  -0.00058  -0.00057  -0.00058   0.00132
                          R6        A1        A2        A3        A4
           R6           0.51283
           A1           0.00635   0.16301
           A2           0.00289  -0.00273   0.16175
           A3           0.00273  -0.00070   0.00025   0.15990
           A4          -0.00245  -0.00031   0.00037   0.00026   0.15976
           A5          -0.00362   0.00028   0.00009   0.00018  -0.00021
           A6          -0.00622   0.00041   0.00031   0.00013   0.00013
           A7           0.03464  -0.00527  -0.00011  -0.00139   0.00139
           A8          -0.00315   0.02056  -0.01437  -0.00337  -0.00101
           A9           0.00008  -0.00002   0.00001   0.00000   0.00000
           D1          -0.00071   0.00025  -0.00016  -0.00002  -0.00003
           D2           0.00222   0.00090  -0.00068  -0.00016  -0.00009
           D3          -0.00161  -0.00112   0.00083   0.00018   0.00013
                          A5        A6        A7        A8        A9
           A5           0.15979
           A6          -0.00015   0.15916
           A7           0.00190   0.00361   0.13767
           A8           0.00076  -0.00281  -0.00870   0.10734
           A9           0.00000   0.00000  -0.00000  -0.00011   0.00230
           D1          -0.00001  -0.00003   0.00005   0.00132  -0.00000
           D2           0.00003  -0.00001  -0.00090   0.00527  -0.00000
           D3          -0.00002   0.00003   0.00087  -0.00648   0.00001
                          D1        D2        D3
           D1           0.00232
           D2           0.00005   0.00258
           D3          -0.00007  -0.00033   0.00269
 ITU=  0 -1  0
 Use linear search instead of GDIIS.
     Eigenvalues ---    0.00230   0.00230   0.08229   0.09864   0.11533
     Eigenvalues ---    0.12719   0.15876   0.16000   0.16008   0.17452
     Eigenvalues ---    0.22011   0.32663   0.32665   0.34108   0.52111
 RFO step:  Lambda=-2.66765192D-04 EMin= 2.29999079D-03
 Quartic linear search produced a step of -0.28114.
 Iteration  1 RMS(Cart)=  0.01339903 RMS(Int)=  0.00010592
 Iteration  2 RMS(Cart)=  0.00009603 RMS(Int)=  0.00000988
 Iteration  3 RMS(Cart)=  0.00000001 RMS(Int)=  0.00000988
 Variable       Old X    -DE/DX   Delta X   Delta X   Delta X     New X
                                 (Linear)    (Quad)   (Total)
    R1        3.88090   0.00353   0.02124  -0.00132   0.01992   3.90082
    R2        2.06488   0.00451   0.00888   0.00256   0.01144   2.07632
    R3        2.06421   0.00478   0.00906   0.00303   0.01209   2.07630
    R4        2.06425   0.00481   0.00905   0.00309   0.01214   2.07639
    R5        3.79648  -0.00656  -0.01275  -0.01034  -0.02308   3.77340
    R6        1.79785   0.01379   0.02064   0.00369   0.02433   1.82218
    A1        1.92432  -0.00004  -0.00388  -0.00100  -0.00488   1.91944
    A2        1.91397   0.00046  -0.00098   0.00497   0.00400   1.91797
    A3        1.91618   0.00047  -0.00160   0.00493   0.00333   1.91951
    A4        1.90724  -0.00072   0.00099  -0.00605  -0.00505   1.90219
    A5        1.90438  -0.00028   0.00180  -0.00341  -0.00163   1.90275
    A6        1.89747   0.00010   0.00374   0.00049   0.00424   1.90171
    A7        1.91482   0.00146  -0.02567   0.02855   0.00288   1.91769
    A8        3.18678   0.00143  -0.01284   0.02908   0.01625   3.20302
    A9        3.13855  -0.00002   0.00086  -0.00749  -0.00663   3.13192
    D1        2.82611  -0.00011  -0.00090  -0.00230  -0.00322   2.82288
    D2        0.72796   0.00061   0.00015   0.00409   0.00424   0.73219
    D3       -1.36901  -0.00052   0.00092  -0.01129  -0.01035  -1.37936
         Item               Value     Threshold  Converged?
 Maximum Force            0.013793     0.000450     NO 
 RMS     Force            0.004202     0.000300     NO 
 Maximum Displacement     0.024302     0.001800     NO 
 RMS     Displacement     0.013400     0.001200     NO 
 Predicted change in Energy=-3.919598D-04
 GradGradGradGradGradGradGradGradGradGradGradGradGradGradGradGradGradGrad

                          Input orientation:                          
 ---------------------------------------------------------------------
 Center     Atomic      Atomic             Coordinates (Angstroms)
 Number     Number       Type             X           Y           Z
 ---------------------------------------------------------------------
      1          6           0       -9.578293    2.782150   -0.000088
      2         80           0       -7.520156    2.940551    0.002043
      3          1           0      -10.028130    3.731105    0.322959
      4          1           0       -9.892604    1.985088    0.687739
      5          1           0       -9.935356    2.542501   -1.011222
      6          8           0       -5.542416    3.215713   -0.002355
      7          1           0       -5.092745    2.362732    0.000974
 ---------------------------------------------------------------------
                    Distance matrix (angstroms):
                    1          2          3          4          5
     1  C    0.000000
     2  Hg   2.064224   0.000000
     3  H    1.098740   2.649130   0.000000
     4  H    1.098729   2.647942   1.788857   0.000000
     5  H    1.098780   2.649214   1.789253   1.788577   0.000000
     6  O    4.059100   1.996796   4.526929   4.573271   4.557296
     7  H    4.505114   2.495236   5.131680   4.863425   4.950528
                    6          7
     6  O    0.000000
     7  H    0.964257   0.000000
 Stoichiometry    CH4HgO
 Framework group  C1[X(CH4HgO)]
 Deg. of freedom    15
 Full point group                 C1      NOp   1
 Largest Abelian subgroup         C1      NOp   1
 Largest concise Abelian subgroup C1      NOp   1
                         Standard orientation:                         
 ---------------------------------------------------------------------
 Center     Atomic      Atomic             Coordinates (Angstroms)
 Number     Number       Type             X           Y           Z
 ---------------------------------------------------------------------
      1          6           0       -2.050116   -0.001677    0.002368
      2         80           0        0.014103    0.002241   -0.000565
      3          1           0       -2.424077   -0.981838   -0.324231
      4          1           0       -2.426393    0.770794   -0.682401
      5          1           0       -2.424514    0.205339    1.014438
      6          8           0        2.007357   -0.116584    0.002596
      7          1           0        2.388570    0.769118    0.002458
 ---------------------------------------------------------------------
 Rotational constants (GHZ):         125.9066023           3.6106809           3.5904504
 Standard basis: def2SVP (5D, 7F)
 There are    87 symmetry adapted cartesian basis functions of A   symmetry.
 There are    80 symmetry adapted basis functions of A   symmetry.
    80 basis functions,   143 primitive gaussians,    87 cartesian basis functions
    19 alpha electrons       19 beta electrons
       nuclear repulsion energy       113.4112961864 Hartrees.
 NAtoms=    7 NActive=    7 NUniq=    7 SFac= 1.00D+00 NAtFMM=   60 NAOKFM=F Big=F
 Integral buffers will be    131072 words long.
 Raffenetti 2 integral format.
 Two-electron integral symmetry is turned on.
 One-electron integrals computed using PRISM.
 PrsmSu:  requested number of processors reduced to:  13 ShMem   1 Linda.
   1 Symmetry operations used in ECPInt.
 ECPInt:  NShTT=     666 NPrTT=    2067 LenC2=     666 LenP2D=    1826.
 LDataN:  DoStor=T MaxTD1= 8 Len=  415
 NBasis=    80 RedAO= T EigKep=  7.29D-03  NBF=    80
 NBsUse=    80 1.00D-06 EigRej= -1.00D+00 NBFU=    80
 Defaulting to unpruned grid for atomic number  80.
 Initial guess from the checkpoint file:  "ch3hgoh_gas_pbeo_def2svp.chk"
 B after Tr=     0.000000    0.000000   -0.000000
         Rot=    0.999995   -0.003083    0.000012   -0.000083 Ang=  -0.35 deg.
 ExpMin= 5.64D-02 ExpMax= 2.27D+03 ExpMxC= 3.41D+02 IAcc=2 IRadAn=         4 AccDes= 0.00D+00
 Harris functional with IExCor= 1009 and IRadAn=       4 diagonalized for initial guess.
 HarFok:  IExCor= 1009 AccDes= 0.00D+00 IRadAn=         4 IDoV= 1 UseB2=F ITyADJ=14
 ICtDFT=  3500011 ScaDFX=  1.000000  1.000000  1.000000  1.000000
 Defaulting to unpruned grid for atomic number  80.
 FoFCou: FMM=F IPFlag=           0 FMFlag=      100000 FMFlg1=           0
         NFxFlg=           0 DoJE=T BraDBF=F KetDBF=T FulRan=T
         wScrn=  0.000000 ICntrl=       500 IOpCl=  0 I1Cent=   200000004 NGrid=           0
         NMat0=    1 NMatS0=      1 NMatT0=    0 NMatD0=    1 NMtDS0=    0 NMtDT0=    0
 Petite list used in FoFCou.
 Keep R1 ints in memory in canonical form, NReq=27063669.
 Requested convergence on RMS density matrix=1.00D-08 within 128 cycles.
 Requested convergence on MAX density matrix=1.00D-06.
 Requested convergence on             energy=1.00D-06.
 No special actions if energy rises.
 Integral accuracy reduced to 1.0D-05 until final iterations.
 Defaulting to unpruned grid for atomic number  80.
 Defaulting to unpruned grid for atomic number  80.
 Defaulting to unpruned grid for atomic number  80.
 Defaulting to unpruned grid for atomic number  80.
 Defaulting to unpruned grid for atomic number  80.
 Defaulting to unpruned grid for atomic number  80.
 Defaulting to unpruned grid for atomic number  80.
 Defaulting to unpruned grid for atomic number  80.
 Defaulting to unpruned grid for atomic number  80.
 Defaulting to unpruned grid for atomic number  80.
 Defaulting to unpruned grid for atomic number  80.
 Defaulting to unpruned grid for atomic number  80.
 Defaulting to unpruned grid for atomic number  80.
 Defaulting to unpruned grid for atomic number  80.
 Defaulting to unpruned grid for atomic number  80.
 Defaulting to unpruned grid for atomic number  80.
 Defaulting to unpruned grid for atomic number  80.
 Defaulting to unpruned grid for atomic number  80.
 Defaulting to unpruned grid for atomic number  80.
 Defaulting to unpruned grid for atomic number  80.
 Defaulting to unpruned grid for atomic number  80.
 Defaulting to unpruned grid for atomic number  80.
 Defaulting to unpruned grid for atomic number  80.
 Defaulting to unpruned grid for atomic number  80.
 Initial convergence to 1.0D-05 achieved.  Increase integral accuracy.
 SCF Done:  E(RPBE1PBE) =  -268.973910633     A.U. after   12 cycles
            NFock= 12  Conv=0.28D-08     -V/T= 2.6258
 PrsmSu:  requested number of processors reduced to:  13 ShMem   1 Linda.
   1 Symmetry operations used in ECPInt.
 ECPInt:  NShTT=     666 NPrTT=    2067 LenC2=     666 LenP2D=    1826.
 LDataN:  DoStor=T MaxTD1= 9 Len=  602
 Calling FoFJK, ICntrl=      2127 FMM=F ISym2X=0 I1Cent= 0 IOpClX= 0 NMat=1 NMatS=1 NMatT=0.
 Defaulting to unpruned grid for atomic number  80.
 Defaulting to unpruned grid for atomic number  80.
 Defaulting to unpruned grid for atomic number  80.
 Defaulting to unpruned grid for atomic number  80.
 Defaulting to unpruned grid for atomic number  80.
 Defaulting to unpruned grid for atomic number  80.
 Defaulting to unpruned grid for atomic number  80.
 Defaulting to unpruned grid for atomic number  80.
 Defaulting to unpruned grid for atomic number  80.
 Defaulting to unpruned grid for atomic number  80.
 Defaulting to unpruned grid for atomic number  80.
 Defaulting to unpruned grid for atomic number  80.
 Defaulting to unpruned grid for atomic number  80.
 Defaulting to unpruned grid for atomic number  80.
 Defaulting to unpruned grid for atomic number  80.
 Defaulting to unpruned grid for atomic number  80.
 Defaulting to unpruned grid for atomic number  80.
 Defaulting to unpruned grid for atomic number  80.
 Defaulting to unpruned grid for atomic number  80.
 Defaulting to unpruned grid for atomic number  80.
 Defaulting to unpruned grid for atomic number  80.
 Defaulting to unpruned grid for atomic number  80.
 Defaulting to unpruned grid for atomic number  80.
 Defaulting to unpruned grid for atomic number  80.
 ***** Axes restored to original set *****
 -------------------------------------------------------------------
 Center     Atomic                   Forces (Hartrees/Bohr)
 Number     Number              X              Y              Z
 -------------------------------------------------------------------
      1        6           0.000997535   -0.000525436   -0.000172813
      2       80           0.001861633    0.001019279   -0.000150396
      3        1          -0.000285309    0.000416052    0.000218245
      4        1          -0.000405030   -0.000128757    0.000316274
      5        1          -0.000311180    0.000030840   -0.000297596
      6        8          -0.002705319   -0.001259425    0.000064185
      7        1           0.000847671    0.000447447    0.000022101
 -------------------------------------------------------------------
 Cartesian Forces:  Max     0.002705319 RMS     0.000884406

 GradGradGradGradGradGradGradGradGradGradGradGradGradGradGradGradGradGrad
 Berny optimization.
 Using GEDIIS/GDIIS optimizer.
 FormGI is forming the generalized inverse of G from B-inverse, IUseBI=4.
 Internal  Forces:  Max     0.001951312 RMS     0.000666878
 Search for a local minimum.
 Step number   4 out of a maximum of   28
 All quantities printed in internal units (Hartrees-Bohrs-Radians)
 Mixed Optimization -- En-DIIS/RFO-DIIS
 Update second derivatives using D2CorX and points    2    1    3    4
 DE= -4.15D-04 DEPred=-3.92D-04 R= 1.06D+00
 TightC=F SS=  1.41D+00  RLast= 4.99D-02 DXNew= 2.5227D-01 1.4984D-01
 Trust test= 1.06D+00 RLast= 4.99D-02 DXMaxT set to 1.50D-01
 The second derivative matrix:
                          R1        R2        R3        R4        R5
           R1           0.15734
           R2           0.00270   0.32750
           R3           0.00390   0.00198   0.32997
           R4           0.00416   0.00227   0.00365   0.33064
           R5          -0.00307   0.00219   0.00129   0.00099   0.19623
           R6           0.01093   0.00850   0.01297   0.01403  -0.00357
           A1           0.00145   0.00288   0.00275   0.00278  -0.00488
           A2           0.00066  -0.00188  -0.00176  -0.00177   0.00568
           A3           0.00025  -0.00149  -0.00143  -0.00141   0.00441
           A4           0.00049   0.00235   0.00231   0.00228  -0.00566
           A5          -0.00044   0.00081   0.00080   0.00079  -0.00285
           A6          -0.00244  -0.00266  -0.00265  -0.00265   0.00325
           A7           0.00728  -0.00281  -0.00284  -0.00286   0.01900
           A8          -0.00709  -0.00059  -0.00128  -0.00102  -0.00626
           A9          -0.00039  -0.00052  -0.00060  -0.00061   0.00065
           D1          -0.00053  -0.00050  -0.00056  -0.00057   0.00046
           D2           0.00152   0.00211   0.00231   0.00236  -0.00281
           D3          -0.00094  -0.00150  -0.00163  -0.00167   0.00214
                          R6        A1        A2        A3        A4
           R6           0.53819
           A1           0.00930   0.16417
           A2          -0.00368  -0.00363   0.16202
           A3          -0.00237  -0.00104   0.00002   0.15943
           A4           0.00455  -0.00016   0.00101   0.00107   0.15846
           A5           0.00083   0.00055   0.00026   0.00055  -0.00085
           A6          -0.00864   0.00009   0.00038   0.00001   0.00042
           A7           0.00524  -0.00658  -0.00150  -0.00379   0.00547
           A8          -0.00086   0.02561  -0.01970  -0.00649   0.00208
           A9          -0.00183  -0.00002  -0.00005  -0.00008   0.00013
           D1          -0.00173   0.00037  -0.00031  -0.00012   0.00007
           D2           0.00734   0.00117  -0.00082  -0.00011  -0.00023
           D3          -0.00532  -0.00152   0.00114   0.00027   0.00010
                          A5        A6        A7        A8        A9
           A5           0.15951
           A6          -0.00004   0.15916
           A7           0.00372   0.00291   0.12584
           A8           0.00323  -0.00487  -0.02245   0.12476
           A9           0.00005  -0.00002  -0.00032  -0.00036   0.00232
           D1           0.00006  -0.00007  -0.00035   0.00172   0.00001
           D2           0.00005  -0.00007  -0.00089   0.00675  -0.00008
           D3          -0.00012   0.00015   0.00141  -0.00830   0.00007
                          D1        D2        D3
           D1           0.00234
           D2           0.00004   0.00287
           D3          -0.00007  -0.00060   0.00296
 ITU=  1  0 -1  0
 Use linear search instead of GDIIS.
     Eigenvalues ---    0.00230   0.00231   0.08035   0.09904   0.11120
     Eigenvalues ---    0.13148   0.15853   0.15997   0.16002   0.17953
     Eigenvalues ---    0.20766   0.32633   0.32665   0.33340   0.54090
 RFO step:  Lambda=-5.64800087D-05 EMin= 2.29852322D-03
 Quartic linear search produced a step of  0.09710.
 Iteration  1 RMS(Cart)=  0.00944019 RMS(Int)=  0.00012591
 Iteration  2 RMS(Cart)=  0.00021330 RMS(Int)=  0.00001830
 Iteration  3 RMS(Cart)=  0.00000005 RMS(Int)=  0.00001830
 Variable       Old X    -DE/DX   Delta X   Delta X   Delta X     New X
                                 (Linear)    (Quad)   (Total)
    R1        3.90082   0.00002   0.00193  -0.00273  -0.00080   3.90002
    R2        2.07632   0.00054   0.00111   0.00088   0.00199   2.07831
    R3        2.07630   0.00041   0.00117   0.00038   0.00155   2.07785
    R4        2.07639   0.00037   0.00118   0.00024   0.00141   2.07781
    R5        3.77340  -0.00195  -0.00224  -0.00979  -0.01203   3.76137
    R6        1.82218  -0.00000   0.00236  -0.00251  -0.00015   1.82203
    A1        1.91944  -0.00010  -0.00047  -0.00029  -0.00075   1.91869
    A2        1.91797   0.00041   0.00039   0.00304   0.00341   1.92138
    A3        1.91951   0.00026   0.00032   0.00238   0.00270   1.92222
    A4        1.90219  -0.00031  -0.00049  -0.00299  -0.00349   1.89870
    A5        1.90275  -0.00020  -0.00016  -0.00198  -0.00211   1.90064
    A6        1.90171  -0.00007   0.00041  -0.00025   0.00013   1.90184
    A7        1.91769   0.00175   0.00028   0.01622   0.01650   1.93419
    A8        3.20302  -0.00033   0.00158  -0.00077   0.00080   3.20382
    A9        3.13192   0.00009  -0.00064   0.04521   0.04456   3.17648
    D1        2.82288  -0.00005  -0.00031  -0.00765  -0.00793   2.81496
    D2        0.73219   0.00014   0.00041  -0.00160  -0.00118   0.73102
    D3       -1.37936  -0.00012  -0.00101  -0.00605  -0.00710  -1.38646
         Item               Value     Threshold  Converged?
 Maximum Force            0.001951     0.000450     NO 
 RMS     Force            0.000667     0.000300     NO 
 Maximum Displacement     0.024303     0.001800     NO 
 RMS     Displacement     0.009512     0.001200     NO 
 Predicted change in Energy=-3.148346D-05
 GradGradGradGradGradGradGradGradGradGradGradGradGradGradGradGradGradGrad

                          Input orientation:                          
 ---------------------------------------------------------------------
 Center     Atomic      Atomic             Coordinates (Angstroms)
 Number     Number       Type             X           Y           Z
 ---------------------------------------------------------------------
      1          6           0       -9.577376    2.781235   -0.001215
      2         80           0       -7.519543    2.937807   -0.010817
      3          1           0      -10.024167    3.731366    0.326157
      4          1           0       -9.892334    1.985394    0.689036
      5          1           0       -9.943666    2.544533   -1.010554
      6          8           0       -5.548175    3.212404    0.000163
      7          1           0       -5.084439    2.367100    0.007280
 ---------------------------------------------------------------------
                    Distance matrix (angstroms):
                    1          2          3          4          5
     1  C    0.000000
     2  Hg   2.063803   0.000000
     3  H    1.099792   2.648854   0.000000
     4  H    1.099549   2.650854   1.788150   0.000000
     5  H    1.099528   2.651511   1.789371   1.789937   0.000000
     6  O    4.052205   1.990431   4.517753   4.566379   4.559380
     7  H    4.511990   2.501152   5.134570   4.870970   4.967852
                    6          7
     6  O    0.000000
     7  H    0.964178   0.000000
 Stoichiometry    CH4HgO
 Framework group  C1[X(CH4HgO)]
 Deg. of freedom    15
 Full point group                 C1      NOp   1
 Largest Abelian subgroup         C1      NOp   1
 Largest concise Abelian subgroup C1      NOp   1
                         Standard orientation:                         
 ---------------------------------------------------------------------
 Center     Atomic      Atomic             Coordinates (Angstroms)
 Number     Number       Type             X           Y           Z
 ---------------------------------------------------------------------
      1          6           0       -2.049206   -0.002052   -0.008091
      2         80           0        0.014567    0.002509    0.002062
      3          1           0       -2.420351   -0.982694   -0.339957
      4          1           0       -2.425174    0.769850   -0.694986
      5          1           0       -2.433122    0.200798    1.002068
      6          8           0        2.001361   -0.117254   -0.008944
      7          1           0        2.397671    0.761704   -0.012019
 ---------------------------------------------------------------------
 Rotational constants (GHZ):         126.0518924           3.6199841           3.6000506
 Standard basis: def2SVP (5D, 7F)
 There are    87 symmetry adapted cartesian basis functions of A   symmetry.
 There are    80 symmetry adapted basis functions of A   symmetry.
    80 basis functions,   143 primitive gaussians,    87 cartesian basis functions
    19 alpha electrons       19 beta electrons
       nuclear repulsion energy       113.5408872669 Hartrees.
 NAtoms=    7 NActive=    7 NUniq=    7 SFac= 1.00D+00 NAtFMM=   60 NAOKFM=F Big=F
 Integral buffers will be    131072 words long.
 Raffenetti 2 integral format.
 Two-electron integral symmetry is turned on.
 One-electron integrals computed using PRISM.
 PrsmSu:  requested number of processors reduced to:  13 ShMem   1 Linda.
   1 Symmetry operations used in ECPInt.
 ECPInt:  NShTT=     666 NPrTT=    2067 LenC2=     666 LenP2D=    1826.
 LDataN:  DoStor=T MaxTD1= 8 Len=  415
 NBasis=    80 RedAO= T EigKep=  7.26D-03  NBF=    80
 NBsUse=    80 1.00D-06 EigRej= -1.00D+00 NBFU=    80
 Defaulting to unpruned grid for atomic number  80.
 Initial guess from the checkpoint file:  "ch3hgoh_gas_pbeo_def2svp.chk"
 B after Tr=    -0.000000    0.000000    0.000000
         Rot=    1.000000   -0.000916    0.000129    0.000099 Ang=  -0.11 deg.
 ExpMin= 5.64D-02 ExpMax= 2.27D+03 ExpMxC= 3.41D+02 IAcc=2 IRadAn=         4 AccDes= 0.00D+00
 Harris functional with IExCor= 1009 and IRadAn=       4 diagonalized for initial guess.
 HarFok:  IExCor= 1009 AccDes= 0.00D+00 IRadAn=         4 IDoV= 1 UseB2=F ITyADJ=14
 ICtDFT=  3500011 ScaDFX=  1.000000  1.000000  1.000000  1.000000
 Defaulting to unpruned grid for atomic number  80.
 FoFCou: FMM=F IPFlag=           0 FMFlag=      100000 FMFlg1=           0
         NFxFlg=           0 DoJE=T BraDBF=F KetDBF=T FulRan=T
         wScrn=  0.000000 ICntrl=       500 IOpCl=  0 I1Cent=   200000004 NGrid=           0
         NMat0=    1 NMatS0=      1 NMatT0=    0 NMatD0=    1 NMtDS0=    0 NMtDT0=    0
 Petite list used in FoFCou.
 Keep R1 ints in memory in canonical form, NReq=27063669.
 Requested convergence on RMS density matrix=1.00D-08 within 128 cycles.
 Requested convergence on MAX density matrix=1.00D-06.
 Requested convergence on             energy=1.00D-06.
 No special actions if energy rises.
 Integral accuracy reduced to 1.0D-05 until final iterations.
 Defaulting to unpruned grid for atomic number  80.
 Defaulting to unpruned grid for atomic number  80.
 Defaulting to unpruned grid for atomic number  80.
 Defaulting to unpruned grid for atomic number  80.
 Defaulting to unpruned grid for atomic number  80.
 Defaulting to unpruned grid for atomic number  80.
 Defaulting to unpruned grid for atomic number  80.
 Defaulting to unpruned grid for atomic number  80.
 Defaulting to unpruned grid for atomic number  80.
 Defaulting to unpruned grid for atomic number  80.
 Defaulting to unpruned grid for atomic number  80.
 Defaulting to unpruned grid for atomic number  80.
 Defaulting to unpruned grid for atomic number  80.
 Defaulting to unpruned grid for atomic number  80.
 Defaulting to unpruned grid for atomic number  80.
 Defaulting to unpruned grid for atomic number  80.
 Defaulting to unpruned grid for atomic number  80.
 Defaulting to unpruned grid for atomic number  80.
 Defaulting to unpruned grid for atomic number  80.
 Defaulting to unpruned grid for atomic number  80.
 Defaulting to unpruned grid for atomic number  80.
 Defaulting to unpruned grid for atomic number  80.
 Defaulting to unpruned grid for atomic number  80.
 Defaulting to unpruned grid for atomic number  80.
 Initial convergence to 1.0D-05 achieved.  Increase integral accuracy.
 SCF Done:  E(RPBE1PBE) =  -268.973938464     A.U. after   11 cycles
            NFock= 11  Conv=0.29D-08     -V/T= 2.6258
 PrsmSu:  requested number of processors reduced to:  13 ShMem   1 Linda.
   1 Symmetry operations used in ECPInt.
 ECPInt:  NShTT=     666 NPrTT=    2067 LenC2=     666 LenP2D=    1826.
 LDataN:  DoStor=T MaxTD1= 9 Len=  602
 Calling FoFJK, ICntrl=      2127 FMM=F ISym2X=0 I1Cent= 0 IOpClX= 0 NMat=1 NMatS=1 NMatT=0.
 Defaulting to unpruned grid for atomic number  80.
 Defaulting to unpruned grid for atomic number  80.
 Defaulting to unpruned grid for atomic number  80.
 Defaulting to unpruned grid for atomic number  80.
 Defaulting to unpruned grid for atomic number  80.
 Defaulting to unpruned grid for atomic number  80.
 Defaulting to unpruned grid for atomic number  80.
 Defaulting to unpruned grid for atomic number  80.
 Defaulting to unpruned grid for atomic number  80.
 Defaulting to unpruned grid for atomic number  80.
 Defaulting to unpruned grid for atomic number  80.
 Defaulting to unpruned grid for atomic number  80.
 Defaulting to unpruned grid for atomic number  80.
 Defaulting to unpruned grid for atomic number  80.
 Defaulting to unpruned grid for atomic number  80.
 Defaulting to unpruned grid for atomic number  80.
 Defaulting to unpruned grid for atomic number  80.
 Defaulting to unpruned grid for atomic number  80.
 Defaulting to unpruned grid for atomic number  80.
 Defaulting to unpruned grid for atomic number  80.
 Defaulting to unpruned grid for atomic number  80.
 Defaulting to unpruned grid for atomic number  80.
 Defaulting to unpruned grid for atomic number  80.
 Defaulting to unpruned grid for atomic number  80.
 ***** Axes restored to original set *****
 -------------------------------------------------------------------
 Center     Atomic                   Forces (Hartrees/Bohr)
 Number     Number              X              Y              Z
 -------------------------------------------------------------------
      1        6           0.000114025   -0.000101922   -0.000555416
      2       80          -0.000113506    0.000229439    0.000843561
      3        1           0.000045790   -0.000029703   -0.000024635
      4        1           0.000059044    0.000066631   -0.000076593
      5        1          -0.000173183    0.000032530    0.000176315
      6        8          -0.000173328   -0.000536123   -0.000325444
      7        1           0.000241158    0.000339149   -0.000037788
 -------------------------------------------------------------------
 Cartesian Forces:  Max     0.000843561 RMS     0.000291671

 GradGradGradGradGradGradGradGradGradGradGradGradGradGradGradGradGradGrad
 Berny optimization.
 Using GEDIIS/GDIIS optimizer.
 FormGI is forming the generalized inverse of G from B-inverse, IUseBI=4.
 Internal  Forces:  Max     0.000697452 RMS     0.000225251
 Search for a local minimum.
[...]
 
 Zero-point correction=                           0.048776 (Hartree/Particle)
 Thermal correction to Energy=                    0.054286
 Thermal correction to Enthalpy=                  0.055230
 Thermal correction to Gibbs Free Energy=         0.018695
 Sum of electronic and zero-point Energies=           -268.925188
 Sum of electronic and thermal Energies=              -268.919678
 Sum of electronic and thermal Enthalpies=            -268.918734
 Sum of electronic and thermal Free Energies=         -268.955270
 
                     E (Thermal)             CV                S
                      KCal/Mol        Cal/Mol-Kelvin    Cal/Mol-Kelvin
 Total                   34.065             16.114             76.895
 Electronic               0.000              0.000              0.000
 Translational            0.889              2.981             42.252
 Rotational               0.889              2.981             22.794
 Vibrational             32.287             10.153             11.849
 Vibration     1          0.594              1.981              5.324
 Vibration     2          0.624              1.882              2.461
 Vibration     3          0.626              1.878              2.423
 Vibration     4          0.905              1.141              0.546
 Vibration     5          0.965              1.018              0.439
                       Q            Log10(Q)             Ln(Q)
 Total Bot       0.251842D-08         -8.598872        -19.799634
 Total V=0       0.686532D+14         13.836661         31.860089
 Vib (Bot)       0.837096D-21        -21.077224        -48.532103
 Vib (Bot)    1  0.534568D+01          0.728003          1.676289
 Vib (Bot)    2  0.120263D+01          0.080131          0.184508
 Vib (Bot)    3  0.117722D+01          0.070857          0.163154
 Vib (Bot)    4  0.285902D+00         -0.543783         -1.252108
 Vib (Bot)    5  0.244604D+00         -0.611537         -1.408115
 Vib (V=0)       0.228196D+02          1.358308          3.127620
 Vib (V=0)    1  0.586901D+01          0.768565          1.769686
 Vib (V=0)    2  0.180242D+01          0.255857          0.589133
 Vib (V=0)    3  0.177900D+01          0.250176          0.576051
 Vib (V=0)    4  0.107597D+01          0.031800          0.073221
 Vib (V=0)    5  0.105662D+01          0.023921          0.055080
 Electronic      0.100000D+01          0.000000          0.000000
 Translational   0.140692D+09          8.148269         18.762082
 Rotational      0.213838D+05          4.330084          9.970387
 ***** Axes restored to original set *****
 -------------------------------------------------------------------
 Center     Atomic                   Forces (Hartrees/Bohr)
 Number     Number              X              Y              Z
 -------------------------------------------------------------------
      1        6           0.000000331    0.000001686   -0.000001859
      2       80           0.000000208   -0.000000171    0.000000670
      3        1           0.000000665    0.000001059   -0.000000741
      4        1          -0.000001101    0.000001085   -0.000001023
      5        1           0.000000125    0.000000869   -0.000000394
      6        8           0.000000505   -0.000002531    0.000001839
      7        1          -0.000000734   -0.000001997    0.000001507
 -------------------------------------------------------------------
 Cartesian Forces:  Max     0.000002531 RMS     0.000001200
 FormGI is forming the generalized inverse of G from B-inverse, IUseBI=4.

 GradGradGradGradGradGradGradGradGradGradGradGradGradGradGradGradGradGrad
 Berny optimization.
 Internal  Forces:  Max     0.000000923 RMS     0.000000374
 Search for a local minimum.
 Step number   1 out of a maximum of    2
 All quantities printed in internal units (Hartrees-Bohrs-Radians)
 Second derivative matrix not updated -- analytic derivatives used.
 The second derivative matrix:
                          R1        R2        R3        R4        R5
           R1           0.16723
           R2           0.00220   0.35015
           R3           0.00212   0.00003   0.35028
           R4           0.00220   0.00001   0.00003   0.35015
           R5          -0.00052   0.00080   0.00075   0.00080   0.21261
           R6          -0.00126  -0.00004  -0.00011  -0.00004  -0.00221
           A1           0.01122  -0.00007  -0.00606  -0.00560   0.00302
           A2           0.01142  -0.00588   0.00042  -0.00588   0.00343
           A3           0.01122  -0.00560  -0.00606  -0.00007   0.00302
           A4          -0.01158   0.00724   0.00748  -0.00278  -0.00332
           A5          -0.01147   0.00733  -0.00297   0.00733  -0.00303
           A6          -0.01158  -0.00278   0.00748   0.00724  -0.00332
           A7           0.00367   0.00018   0.00053   0.00018   0.02958
           A8          -0.00163   0.00096  -0.00196   0.00096  -0.00304
           A9          -0.00000   0.00055   0.00000  -0.00055  -0.00000
           D1          -0.00014  -0.00001   0.00519  -0.00534  -0.00013
           D2           0.00000  -0.00536  -0.00000   0.00536  -0.00000
           D3           0.00014   0.00534  -0.00519   0.00001   0.00013
                          R6        A1        A2        A3        A4
           R6           0.54223
           A1          -0.00040   0.07751
           A2           0.00071  -0.01393   0.07907
           A3          -0.00040  -0.01156  -0.01393   0.07751
           A4           0.00007  -0.02923  -0.02616   0.00186   0.05995
           A5          -0.00006  -0.02587   0.00010  -0.02587  -0.00311
           A6           0.00007   0.00186  -0.02616  -0.02923  -0.00210
           A7           0.01429  -0.00174   0.00523  -0.00174  -0.00037
           A8          -0.00261   0.01454  -0.02883   0.01454  -0.00548
           A9           0.00000   0.00636  -0.00000  -0.00636   0.00056
           D1          -0.00011   0.00163   0.00407  -0.00518   0.01894
           D2           0.00000  -0.00633  -0.00000   0.00633  -0.01866
           D3           0.00011   0.00518  -0.00407  -0.00163   0.00022
                          A5        A6        A7        A8        A9
           A5           0.05896
           A6          -0.00311   0.05995
           A7          -0.00103  -0.00037   0.08460
           A8           0.01061  -0.00548  -0.01906   0.13094
           A9          -0.00000  -0.00056  -0.00000  -0.00000   0.01170
           D1          -0.01920  -0.00022  -0.00109   0.00401   0.00138
           D2          -0.00000   0.01866  -0.00000   0.00000  -0.00255
           D3           0.01920  -0.01894   0.00109  -0.00401   0.00138
                          D1        D2        D3
           D1           0.01832
           D2          -0.00926   0.01796
           D3          -0.00868  -0.00926   0.01832
 ITU=  0
     Eigenvalues ---    0.00005   0.01043   0.06005   0.06824   0.07366
     Eigenvalues ---    0.09338   0.10054   0.11091   0.15557   0.17799
     Eigenvalues ---    0.22053   0.35091   0.35106   0.35141   0.54272
 Angle between quadratic step and forces=  33.9 Iteration  1 RMS(Cart)=  0.00001718 RMS(Int)=  0.000000 It Iteration  2 RMS(Cart)=  0.00000000 RMS(Int)=  0.000000 Iteration  2 RMS(Cart)=  0.00000 Iteration  2 RMS(Cart)=  0.00000000 RMS(Int)=  0.00000000
 Variable       Old X    -DE/DX   Delta X   Delta X   Delta X     New X
                                 (Linear)    (Quad)   (Total)
    R1        3.89920  -0.00000   0.00000  -0.00000  -0.00000   3.89919
    R2        2.07780  -0.00000   0.00000  -0.00000  -0.00000   2.07780
    R3        2.07769   0.00000   0.00000   0.00000   0.00000   2.07769
    R4        2.07780  -0.00000   0.00000  -0.00000  -0.00000   2.07780
    R5        3.76017  -0.00000   0.00000  -0.00000  -0.00000   3.76017
    R6        1.82149  -0.00000   0.00000  -0.00000  -0.00000   1.82149
    A1        1.92194  -0.00000   0.00000  -0.00000  -0.00000   1.92194
    A2        1.92006  -0.00000   0.00000  -0.00001  -0.00001   1.92006
    A3        1.92193   0.00000   0.00000   0.00001   0.00001   1.92194
    A4        1.89898  -0.00000   0.00000  -0.00000  -0.00000   1.89898
    A5        1.90154   0.00000   0.00000   0.00000   0.00000   1.90154
    A6        1.89899  -0.00000   0.00000  -0.00001  -0.00001   1.89898
    A7        1.94310  -0.00000   0.00000  -0.00000  -0.00000   1.94309
    A8        3.20519  -0.00000   0.00000  -0.00001  -0.00001   3.20518
    A9        3.14159  -0.00000   0.00000  -0.00000  -0.00000   3.14159
    D1        2.10259  -0.00000   0.00000   0.00009   0.00009   2.10268
    D2       -0.00001   0.00000   0.00000   0.00010   0.00010   0.00009
    D3       -2.10260   0.00000   0.00000   0.00010   0.00010  -2.10250
         Item               Value     Threshold  Converged?
 Maximum Force            0.000001     0.000450     YES
 RMS     Force            0.000000     0.000300     YES
 Maximum Displacement     0.000056     0.001800     YES
 RMS     Displacement     0.000027     0.001200     YES
 Predicted change in Energy=-1.428318D-11
 Optimization completed.
    -- Stationary point found.
                           ----------------------------
                           !   Optimized Parameters   !
                           ! (Angstroms and Degrees)  !
 --------------------------                            --------------------------
 ! Name  Definition              Value          Derivative Info.                !
 --------------------------------------------------------------------------------
 ! R1    R(1,2)                  2.0634         -DE/DX =    0.0                 !
 ! R2    R(1,3)                  1.0995         -DE/DX =    0.0                 !
 ! R3    R(1,4)                  1.0995         -DE/DX =    0.0                 !
 ! R4    R(1,5)                  1.0995         -DE/DX =    0.0                 !
 ! R5    R(2,6)                  1.9898         -DE/DX =    0.0                 !
 ! R6    R(6,7)                  0.9639         -DE/DX =    0.0                 !
 ! A1    A(2,1,3)              110.1189         -DE/DX =    0.0                 !
 ! A2    A(2,1,4)              110.0116         -DE/DX =    0.0                 !
 ! A3    A(2,1,5)              110.1183         -DE/DX =    0.0                 !
 ! A4    A(3,1,4)              108.8038         -DE/DX =    0.0                 !
 ! A5    A(3,1,5)              108.95           -DE/DX =    0.0                 !
 ! A6    A(4,1,5)              108.8039         -DE/DX =    0.0                 !
 ! A7    A(2,6,7)              111.3312         -DE/DX =    0.0                 !
 ! A8    L(1,2,6,7,-1)         183.6438         -DE/DX =    0.0                 !
 ! A9    L(1,2,6,7,-2)         180.0001         -DE/DX =    0.0                 !
 ! D1    D(3,1,6,7)            120.4693         -DE/DX =    0.0                 !
 ! D2    D(4,1,6,7)             -0.0006         -DE/DX =    0.0                 !
 ! D3    D(5,1,6,7)           -120.4701         -DE/DX =    0.0                 !
 --------------------------------------------------------------------------------
 GradGradGradGradGradGradGradGradGradGradG
 ----------------------------------------------------------------------

 Electric dipole moment (input orientation):
 (Debye = 10**-18 statcoulomb cm , SI units = C m)
                  (au)            (Debye)         (10**-30 SI)
   Tot        0.876749D+00      0.222847D+01      0.743339D+01
   x         -0.646898D+00     -0.164425D+01     -0.548463D+01
   y         -0.472615D+00     -0.120127D+01     -0.400700D+01
   z          0.356156D+00      0.905259D+00      0.301962D+01

 Dipole polarizability, Alpha (input orientation).
 (esu units = cm**3 , SI units = C**2 m**2 J**-1)
 Alpha(0;0):
               (au)            (10**-24 esu)      (10**-40 SI)
   iso        0.432772D+02      0.641302D+01      0.713544D+01
   aniso      0.287930D+02      0.426668D+01      0.474732D+01
   xx         0.624143D+02      0.924885D+01      0.102907D+02
   yx         0.979414D+00      0.145134D+00      0.161484D+00
   yy         0.338814D+02      0.502070D+01      0.558628D+01
   zx        -0.560611D+00     -0.830740D-01     -0.924323D-01
   zy        -0.607327D+00     -0.899965D-01     -0.100135D+00
   zz         0.335359D+02      0.496950D+01      0.552932D+01

 ----------------------------------------------------------------------

 Dipole orientation:
     6        -12.58012681          9.29172960         10.51974364
    80        -10.37896713          8.29575626          7.45924444
     1        -12.98231002         11.32980428         10.47779680
     1        -11.58543839          8.84164534         12.28746137
     1        -14.37654073          8.24846678         10.47777018
     8         -8.43146996          7.41456040          4.36575767
     1         -6.81654894          6.68385505          4.78519318

 Electric dipole moment (dipole orientation):
 (Debye = 10**-18 statcoulomb cm , SI units = C m)
                  (au)            (Debye)         (10**-30 SI)
   Tot        0.876749D+00      0.222847D+01      0.743339D+01
   x          0.000000D+00      0.000000D+00      0.000000D+00
   y          0.000000D+00      0.000000D+00      0.000000D+00
   z          0.876749D+00      0.222847D+01      0.743339D+01

 Dipole polarizability, Alpha (dipole orientation).
 (esu units = cm**3 , SI units = C**2 m**2 J**-1)
 Alpha(0;0):
               (au)            (10**-24 esu)      (10**-40 SI)
   iso        0.432772D+02      0.641302D+01      0.713544D+01
   aniso      0.287930D+02      0.426668D+01      0.474732D+01
   xx         0.438172D+02      0.649304D+01      0.722448D+01
   yx        -0.485990D+01     -0.720163D+00     -0.801290D+00
   yy         0.352755D+02      0.522728D+01      0.581614D+01
   zx        -0.126481D+02     -0.187426D+01     -0.208540D+01
   zy         0.572299D+01      0.848060D+00      0.943594D+00
   zz         0.507389D+02      0.751873D+01      0.836572D+01

 ----------------------------------------------------------------------

 Test job not archived.
 1\1\GINC-GRANADO-COMPUTE-16\Freq\RPBE1PBE\def2SVP\C1H4Hg1O1\ROOT\20-Ma
 y-2023\0\\#N Geom=AllCheck Guess=TCheck SCRF=Check Test GenChk RPBE1PB
 E/def2SVP Freq\\Optimization MeHgoh-gas-apfd-def2svp phase\\0,1\C,-9.5
 779954972,2.7830142854,0.000019593\Hg,-7.5201022971,2.9084478887,-0.08
 25505502\H,-9.9970923482,3.7108182301,0.4153428447\H,-9.8782396735,1.9
 409286998,0.6399995469\H,-9.9880598867,2.6258674172,-1.0080025103\O,-5
 .5487740764,3.1294443476,-0.2385125739\H,-5.079436221,2.4613191312,0.2
 737536497\\Version=EM64L-G16RevA.03\State=1-A\HF=-268.9739641\RMSD=2.4
 96e-09\RMSF=1.200e-06\ZeroPoint=0.0487763\Thermal=0.0542856\Dipole=-0.
 6468976,-0.4726152,0.3561564\DipoleDeriv=-0.1622559,-0.0062089,0.00475
 78,0.0402499,-0.1782919,0.0094506,-0.0306527,0.0091564,-0.1734027,1.41
 16634,0.0523483,-0.033147,0.0148485,0.3527438,-0.0052272,-0.0045628,-0
 .0049895,0.3495376,-0.0699148,0.0838461,0.0395211,0.0331889,0.0014698,
 -0.0332864,0.0216448,-0.0353504,0.0549362,-0.0285934,-0.0757963,0.0571
 475,-0.0375086,0.0044477,0.0501882,0.0279621,0.0499452,0.0327084,-0.06
 87006,-0.0166121,-0.0916685,-0.0127819,0.068544,-0.0175285,-0.0381012,
 -0.0151675,-0.0133535,-1.3194918,-0.0631034,0.0431958,-0.003224,-0.431
 0657,-0.0873345,-0.0024476,-0.0877143,-0.4787646,0.237293,0.0255264,-0
 .0198066,-0.0347729,0.1821523,0.0837378,0.0261574,0.0841202,0.2283386\
 Polar=62.4143399,0.9794143,33.8813506,-0.5606112,-0.6073266,33.5358779
 \Quadrupole=-2.0924919,1.1257322,0.9667597,-2.6172692,1.9774465,-0.351
 6676\PG=C01 [X(C1H4Hg1O1)]\NImag=0\\0.33567833,-0.01197004,0.53569724,
 0.00784546,0.00091098,0.53634710,-0.14306822,-0.00508723,0.00321541,0.
 37879920,-0.00804006,-0.04089472,0.00172400,0.02207586,0.06438934,0.00
 546625,0.00174272,-0.03985983,-0.01476555,-0.00815526,0.05963000,-0.07
 534200,0.10383628,0.04546550,-0.00884177,0.01684886,0.00707162,0.08070
 676,0.09038727,-0.24704370,-0.09111783,-0.00204701,0.00438227,0.002266
 22,-0.09825499,0.26310993,0.03964596,-0.09209980,-0.08464888,-0.000341
 07,0.00125673,-0.00057324,-0.04354913,0.09883320,0.08641803,-0.0537870
 5,-0.06899490,0.05252448,-0.00631926,-0.01585756,0.01205466,0.00243393
 ,0.00920436,-0.00804345,0.05917649,-0.05734736,-0.21190567,0.12824397,
 0.00048049,0.00121894,-0.00179461,-0.00813388,-0.01692691,0.01619920,0
 .06300996,0.22381255,0.04364611,0.12817005,-0.14060708,-0.00039910,-0.
 00189825,0.00030500,-0.00405750,-0.01077634,0.00719230,-0.04792132,-0.
 13812735,0.14706363,-0.07348644,-0.01617931,-0.11026186,-0.00869639,-0
 .00240668,-0.01822808,0.00385018,0.00114092,0.01208152,0.00234320,0.00
 178645,0.00891368,0.07882253,-0.01412356,-0.04942301,-0.03853250,-0.00
 025778,-0.00114135,-0.00036998,-0.01111848,-0.00242931,-0.02375780,0.0
 1000737,0.00418559,0.02211695,0.01582410,0.04851218,-0.09575774,-0.037
 47821,-0.28412447,0.00195018,0.00074575,0.00480468,-0.00420931,0.00121
 035,-0.00855932,-0.00658296,-0.00502075,-0.01382934,0.10425211,0.04057
 524,0.30289955,0.01003449,0.00148515,-0.00113715,-0.19767051,-0.026285
 52,0.01889117,-0.00310352,-0.00056293,0.00002302,-0.00240305,0.0000533
 9,-0.00005632,-0.00312876,-0.00019061,0.00052105,0.33587191,0.00220582
 ,0.01375085,-0.00220681,-0.00860096,-0.02904781,0.00916398,-0.00294669
 ,-0.00106251,-0.00057828,0.00303056,-0.00039335,0.00036428,-0.00030074
 ,0.00028746,0.00003755,-0.16025469,0.27761244,-0.00168648,-0.00221138,
 0.01251244,0.00541066,0.00905185,-0.02381998,-0.00051982,-0.00033515,0
 .00014151,-0.00232568,0.00034540,-0.00021870,0.00296497,-0.00018974,-0
 .00118328,0.12424478,-0.20764337,0.16561102,-0.00002911,-0.00308996,0.
 00234816,-0.01420305,0.01366511,-0.01049006,0.00029643,0.00013238,0.00
 018315,-0.00144424,0.00015096,-0.00012556,0.00029567,-0.00014103,-0.00
 017332,-0.13960055,0.16686671,-0.12808844,0.15468486,-0.00111206,-0.00
 018099,0.00097818,-0.00656337,0.00109335,-0.00285306,-0.00023110,-0.00
 002976,0.00014675,-0.00039978,0.00000885,0.00015066,0.00013526,0.00000
 845,-0.00006992,0.18575522,-0.26114708,0.20098239,-0.17758417,0.260247
 18,0.00084045,0.00096564,0.00038073,0.00492947,-0.00272482,-0.00048662
 ,-0.00020136,-0.00008044,0.00002960,0.00029426,0.00015415,0.00009419,0
 .00027766,0.00015782,-0.00000782,-0.14248655,0.20086265,-0.15304301,0.
 13634606,-0.19933499,0.15303293\\-0.00000033,-0.00000169,0.00000186,-0
 .00000021,0.00000017,-0.00000067,-0.00000066,-0.00000106,0.00000074,0.
 00000110,-0.00000109,0.00000102,-0.00000013,-0.00000087,0.00000039,-0.
 00000051,0.00000253,-0.00000184,0.00000073,0.00000200,-0.00000151\\\@


 THERE IS MUCH PLEASURE TO BE GAINED FROM USELESS KNOWLEDGE

                                       -- BERTRAND RUSSELL
 Job cpu time:       0 days  0 hours 20 minutes 34.7 seconds.
 Elapsed time:       0 days  0 hours  6 minutes 49.2 seconds.
 File lengths (MBytes):  RWF=     10 Int=      0 D2E=      0 Chk=      2 Scr=      1
 Normal termination of Gaussian 16 at Sat May 20 22:30:31 2023.
0 22:30:31 2023.
.
y 20 22:30:28 2023.
tion of Gaussian 16 at Sat May 20 22:30:22 2023.
.15303444\\-0.00000030,-0.00000168,0.00000184,-0.00
 000017,0.00000017,-0.00000067,-0.00000068,-0.00000103,0.00000076,0.000
 00110,-0.00000111,0.00000104,-0.00000014,-0.00000088,0.00000037,-0.000
 00053,0.00000252,-0.00000183,0.00000072,0.00000201,-0.00000152\\\@


 The juvenile sea squirt wanders through the sea searching
 for a suitable rock or hunk of coral to cling to and make
 its home for life.  For this task it has a rudimentary
 nervous system.  When it finds its spot and takes root, it
 doesn't need its brain any more so it eats it.
 It's rather like getting tenure.

                               -- source unknown
 Job cpu time:       0 days  0 hours 21 minutes 11.1 seconds.
 Elapsed time:       0 days  0 hours  7 minutes  1.2 seconds.
 File lengths (MBytes):  RWF=     10 Int=      0 D2E=      0 Chk=      2 Scr=      1
 Normal termination of Gaussian 16 at Sat May 20 22:30:18 2023.
