 Entering Gaussian System, Link 0=g16
 Input=input.gjf
 Output=input.log
 Initial command:
 /opt/ohpc/pub/apps/gaussian/G16x86_64_legacy_CPUs_linux_binary/g16/l1.exe "/tmp/Gau-28102.inp" -scrdir="/tmp/"
 Entering Link 1 = /opt/ohpc/pub/apps/gaussian/G16x86_64_legacy_CPUs_linux_binary/g16/l1.exe PID=     28200.
  
 Copyright (c) 1988,1990,1992,1993,1995,1998,2003,2009,2016,
            Gaussian, Inc.  All Rights Reserved.
  
 This is part of the Gaussian(R) 16 program.  It is based on
 the Gaussian(R) 09 system (copyright 2009, Gaussian, Inc.),
 the Gaussian(R) 03 system (copyright 2003, Gaussian, Inc.),
 the Gaussian(R) 98 system (copyright 1998, Gaussian, Inc.),
 the Gaussian(R) 94 system (copyright 1995, Gaussian, Inc.),
 the Gaussian 92(TM) system (copyright 1992, Gaussian, Inc.),
 the Gaussian 90(TM) system (copyright 1990, Gaussian, Inc.),
 the Gaussian 88(TM) system (copyright 1988, Gaussian, Inc.),
 the Gaussian 86(TM) system (copyright 1986, Carnegie Mellon
 University), and the Gaussian 82(TM) system (copyright 1983,
 Carnegie Mellon University). Gaussian is a federally registered
 trademark of Gaussian, Inc.
  
 This software contains proprietary and confidential information,
 including trade secrets, belonging to Gaussian, Inc.
  
 This software is provided under written license and may be
 used, copied, transmitted, or stored only in accord with that
 written license.
  
 The following legend is applicable only to US Government
 contracts under FAR:
  
                    RESTRICTED RIGHTS LEGEND
  
 Use, reproduction and disclosure by the US Government is
 subject to restrictions as set forth in subparagraphs (a)
 and (c) of the Commercial Computer Software - Restricted
 Rights clause in FAR 52.227-19.
  
 Gaussian, Inc.
 340 Quinnipiac St., Bldg. 40, Wallingford CT 06492
  
  
 ---------------------------------------------------------------
 Warning -- This program may not be used in any manner that
 competes with the business of Gaussian, Inc. or will provide
 assistance to any competitor of Gaussian, Inc.  The licensee
 of this program is prohibited from giving any competitor of
 Gaussian, Inc. access to this program.  By using this program,
 the user acknowledges that Gaussian, Inc. is engaged in the
 business of creating and licensing software in the field of
 computational chemistry and represents and warrants to the
 licensee that it is not a competitor of Gaussian, Inc. and that
 it will not use this program in any manner prohibited above.
 ---------------------------------------------------------------
  

 Cite this work as:
 Gaussian 16, Revision A.03,
 M. J. Frisch, G. W. Trucks, H. B. Schlegel, G. E. Scuseria, 
 M. A. Robb, J. R. Cheeseman, G. Scalmani, V. Barone, 
 G. A. Petersson, H. Nakatsuji, X. Li, M. Caricato, A. V. Marenich, 
 J. Bloino, B. G. Janesko, R. Gomperts, B. Mennucci, H. P. Hratchian, 
 J. V. Ortiz, A. F. Izmaylov, J. L. Sonnenberg, D. Williams-Young, 
 F. Ding, F. Lipparini, F. Egidi, J. Goings, B. Peng, A. Petrone, 
 T. Henderson, D. Ranasinghe, V. G. Zakrzewski, J. Gao, N. Rega, 
 G. Zheng, W. Liang, M. Hada, M. Ehara, K. Toyota, R. Fukuda, 
 J. Hasegawa, M. Ishida, T. Nakajima, Y. Honda, O. Kitao, H. Nakai, 
 T. Vreven, K. Throssell, J. A. Montgomery, Jr., J. E. Peralta, 
 F. Ogliaro, M. J. Bearpark, J. J. Heyd, E. N. Brothers, K. N. Kudin, 
 V. N. Staroverov, T. A. Keith, R. Kobayashi, J. Normand, 
 K. Raghavachari, A. P. Rendell, J. C. Burant, S. S. Iyengar, 
 J. Tomasi, M. Cossi, J. M. Millam, M. Klene, C. Adamo, R. Cammi, 
 J. W. Ochterski, R. L. Martin, K. Morokuma, O. Farkas, 
 J. B. Foresman, and D. J. Fox, Gaussian, Inc., Wallingford CT, 2016.
 
 ******************************************
 Gaussian 16:  EM64L-G16RevA.03 25-Dec-2016
                12-Aug-2023 
 ******************************************
 %NProcShared=24
 Will use up to   24 processors via shared memory.
 %Chk=ch3hg_gas_mp2.chk
 ------------------------------------------------
 #Opt Freq mp2/Def2SVP int=UltraFine scf=xqc test
 ------------------------------------------------
 1/18=20,19=15,38=1/1,3;
 2/9=110,12=2,17=6,18=5,40=1/2;
 3/5=43,7=101,11=9,25=1,30=1,71=1,75=-5/1,2,3;
 4//1;
 5/5=2,8=3,13=1,38=5/2,8;
 8/6=4,10=1/1;
 9/15=2,16=-3/6;
 10/5=1/2;
 6/7=2,8=2,9=2,10=2/1;
 7/12=2/1,2,3,16;
 1/18=20,19=15/3(2);
 2/9=110/2;
 99//99;
 2/9=110/2;
 3/5=43,7=101,11=9,25=1,30=1,71=1,75=-5/1,2,3;
 4/5=5,16=3,69=1/1;
 5/5=2,8=3,13=1,38=5/2,8;
 8/6=4,10=1/1;
 9/15=2,16=-3/6;
 10/5=1/2;
 7/12=2/1,2,3,16;
 1/18=20,19=15/3(-8);
 2/9=110/2;
 6/7=2,8=2,9=2,10=2/1;
 99//99;
 ----------------------------------------
 Optimization MeHg-adfd-def2svp-solvation
 ----------------------------------------
 Symbolic Z-matrix:
 Charge =  1 Multiplicity = 1
 C                    -4.90923   1.55094  -0.00079 
 Hg                   -3.34603   3.11247   0.001 
 H                    -4.66399   0.82398   0.77549 
 H                    -4.91664   1.07892  -0.98485 
 H                    -5.86789   2.02986   0.20616 
 

 GradGradGradGradGradGradGradGradGradGradGradGradGradGradGradGradGradGrad
 Berny optimization.
 Initialization pass.
                           ----------------------------
                           !    Initial Parameters    !
                           ! (Angstroms and Degrees)  !
 --------------------------                            --------------------------
 ! Name  Definition              Value          Derivative Info.                !
 --------------------------------------------------------------------------------
 ! R1    R(1,2)                  2.2095         estimate D2E/DX2                !
 ! R2    R(1,3)                  1.0914         estimate D2E/DX2                !
 ! R3    R(1,4)                  1.0914         estimate D2E/DX2                !
 ! R4    R(1,5)                  1.0914         estimate D2E/DX2                !
 ! A1    A(2,1,3)              108.1301         estimate D2E/DX2                !
 ! A2    A(2,1,4)              108.1301         estimate D2E/DX2                !
 ! A3    A(2,1,5)              108.1288         estimate D2E/DX2                !
 ! A4    A(3,1,4)              110.7783         estimate D2E/DX2                !
 ! A5    A(3,1,5)              110.779          estimate D2E/DX2                !
 ! A6    A(4,1,5)              110.7791         estimate D2E/DX2                !
 ! D1    D(2,1,4,3)            118.3234         estimate D2E/DX2                !
 ! D2    D(2,1,5,3)           -118.323          estimate D2E/DX2                !
 ! D3    D(2,1,5,4)            118.323          estimate D2E/DX2                !
 ! D4    D(3,1,5,4)           -123.354          estimate D2E/DX2                !
 --------------------------------------------------------------------------------
 Trust Radius=3.00D-01 FncErr=1.00D-07 GrdErr=1.00D-07 EigMax=2.50D+02 EigMin=1.00D-04
 Number of steps in this run=     24 maximum allowed number of steps=    100.
 GradGradGradGradGradGradGradGradGradGradGradGradGradGradGradGradGradGrad

                          Input orientation:                          
 ---------------------------------------------------------------------
 Center     Atomic      Atomic             Coordinates (Angstroms)
 Number     Number       Type             X           Y           Z
 ---------------------------------------------------------------------
      1          6           0       -4.909229    1.550937   -0.000794
      2         80           0       -3.346030    3.112469    0.001000
      3          1           0       -4.663989    0.823982    0.775486
      4          1           0       -4.916639    1.078924   -0.984851
      5          1           0       -5.867890    2.029856    0.206158
 ---------------------------------------------------------------------
                    Distance matrix (angstroms):
                    1          2          3          4          5
     1  C    0.000000
     2  Hg   2.209520   0.000000
     3  H    1.091429   2.752093   0.000000
     4  H    1.091430   2.752094   1.796556   0.000000
     5  H    1.091432   2.752075   1.796565   1.796567   0.000000
 This structure is nearly, but not quite of a higher symmetry.
 Consider Symm=Loose if the higher symmetry is desired.
 Stoichiometry    CH3Hg(1+)
 Framework group  C1[X(CH3Hg)]
 Deg. of freedom     9
 Full point group                 C1      NOp   1
 Largest Abelian subgroup         C1      NOp   1
 Largest concise Abelian subgroup C1      NOp   1
                         Standard orientation:                         
 ---------------------------------------------------------------------
 Center     Atomic      Atomic             Coordinates (Angstroms)
 Number     Number       Type             X           Y           Z
 ---------------------------------------------------------------------
      1          6           0       -0.188457    0.563998    1.882972
      2         80           0        0.022417   -0.067087   -0.223979
      3          1           0       -1.164127    1.039167    1.999157
      4          1           0        0.614426    1.268049    2.108607
      5          1           0       -0.112907   -0.324226    2.512714
 ---------------------------------------------------------------------
 Rotational constants (GHZ):         155.3629272           6.7872508           6.7872486
 Standard basis: def2SVP (5D, 7F)
 There are    67 symmetry adapted cartesian basis functions of A   symmetry.
 There are    61 symmetry adapted basis functions of A   symmetry.
    61 basis functions,   111 primitive gaussians,    67 cartesian basis functions
    14 alpha electrons       14 beta electrons
       nuclear repulsion energy        49.8876844411 Hartrees.
 NAtoms=    5 NActive=    5 NUniq=    5 SFac= 1.00D+00 NAtFMM=   60 NAOKFM=F Big=F
 Integral buffers will be    131072 words long.
 Raffenetti 1 integral format.
 Two-electron integral symmetry is turned on.
 One-electron integrals computed using PRISM.
 PrsmSu:  requested number of processors reduced to:  13 ShMem   1 Linda.
   1 Symmetry operations used in ECPInt.
 ECPInt:  NShTT=     378 NPrTT=    1116 LenC2=     379 LenP2D=    1058.
 LDataN:  DoStor=T MaxTD1= 8 Len=  415
 NBasis=    61 RedAO= T EigKep=  9.96D-03  NBF=    61
 NBsUse=    61 1.00D-06 EigRej= -1.00D+00 NBFU=    61
 ExpMin= 5.64D-02 ExpMax= 1.24D+03 ExpMxC= 1.86D+02 IAcc=3 IRadAn=         5 AccDes= 0.00D+00
 Harris functional with IExCor=  205 and IRadAn=       5 diagonalized for initial guess.
 HarFok:  IExCor=  205 AccDes= 0.00D+00 IRadAn=         5 IDoV= 1 UseB2=F ITyADJ=14
 ICtDFT=  3500011 ScaDFX=  1.000000  1.000000  1.000000  1.000000
 Defaulting to unpruned grid for atomic number  80.
 FoFCou: FMM=F IPFlag=           0 FMFlag=      100000 FMFlg1=           0
         NFxFlg=           0 DoJE=T BraDBF=F KetDBF=T FulRan=T
         wScrn=  0.000000 ICntrl=       500 IOpCl=  0 I1Cent=   200000004 NGrid=           0
         NMat0=    1 NMatS0=      1 NMatT0=    0 NMatD0=    1 NMtDS0=    0 NMtDT0=    0
 Petite list used in FoFCou.
 Keep R1 ints in memory in canonical form, NReq=13478195.
 Requested convergence on RMS density matrix=1.00D-08 within  32 cycles.
 Requested convergence on MAX density matrix=1.00D-06.
 Requested convergence on             energy=1.00D-06.
 No special actions if energy rises.
 SCF Done:  E(RHF) =  -191.811280819     A.U. after   13 cycles
            NFock= 13  Conv=0.10D-08     -V/T= 3.1271
 QCSCF skips out because SCF is already converged.
 ExpMin= 5.64D-02 ExpMax= 1.24D+03 ExpMxC= 1.86D+02 IAcc=3 IRadAn=         5 AccDes= 0.00D+00
 HarFok:  IExCor=  205 AccDes= 0.00D+00 IRadAn=         5 IDoV=-2 UseB2=F ITyADJ=14
 ICtDFT= 12500011 ScaDFX=  1.000000  1.000000  1.000000  1.000000
 Defaulting to unpruned grid for atomic number  80.
 Range of M.O.s used for correlation:     2    61
 NBasis=    61 NAE=    14 NBE=    14 NFC=     1 NFV=     0
 NROrb=     60 NOA=    13 NOB=    13 NVA=    47 NVB=    47
 Disk-based method using ON**2 memory for 13 occupieds at a time.
 Estimated scratch disk usage=     7919030 words.
 Actual    scratch disk usage=     7919030 words.
 GetIJB would need an additional   276846537 words of memory to use all  24 processors.
 JobTyp=1 Pass  1:  I=   2 to  14 NPSUse=  6 ParTrn=T ParDer=T DoDerP=T.
 (rs|ai) integrals will be sorted in core.
 Spin components of T(2) and E(2):
     alpha-alpha T2 =       0.2080841213D-01 E2=     -0.7759179244D-01
     alpha-beta  T2 =       0.1056411983D+00 E2=     -0.3456815650D+00
     beta-beta   T2 =       0.2080841213D-01 E2=     -0.7759179244D-01
 ANorm=    0.1071101313D+01
 E2 =    -0.5008651498D+00 EUMP2 =    -0.19231214596869D+03
          IDoAtm=11111
          Differentiating once with respect to electric field.
                with respect to dipole field.
          Differentiating once with respect to nuclear coordinates.
 Keep R1 ints in memory in canonical form, NReq=13479507.
          There are     1 degrees of freedom in the 1st order CPHF.  IDoFFX=0 NUNeed=     1.
 LinEq1:  Iter=  0 NonCon=     1 RMS=9.38D-03 Max=1.54D-01 NDo=     1
 AX will form     1 AO Fock derivatives at one time.
 LinEq1:  Iter=  1 NonCon=     1 RMS=2.33D-03 Max=2.49D-02 NDo=     1
 LinEq1:  Iter=  2 NonCon=     1 RMS=8.62D-04 Max=8.76D-03 NDo=     1
 LinEq1:  Iter=  3 NonCon=     1 RMS=1.42D-04 Max=1.37D-03 NDo=     1
 LinEq1:  Iter=  4 NonCon=     1 RMS=6.04D-05 Max=6.03D-04 NDo=     1
 LinEq1:  Iter=  5 NonCon=     1 RMS=1.37D-05 Max=1.49D-04 NDo=     1
 LinEq1:  Iter=  6 NonCon=     1 RMS=2.90D-06 Max=2.41D-05 NDo=     1
 LinEq1:  Iter=  7 NonCon=     1 RMS=7.02D-07 Max=5.66D-06 NDo=     1
 LinEq1:  Iter=  8 NonCon=     1 RMS=1.28D-07 Max=1.21D-06 NDo=     1
 LinEq1:  Iter=  9 NonCon=     1 RMS=2.13D-08 Max=2.67D-07 NDo=     1
 LinEq1:  Iter= 10 NonCon=     1 RMS=2.27D-09 Max=1.75D-08 NDo=     1
 LinEq1:  Iter= 11 NonCon=     1 RMS=1.47D-10 Max=1.17D-09 NDo=     1
 LinEq1:  Iter= 12 NonCon=     0 RMS=1.41D-11 Max=1.43D-10 NDo=     1
 Linear equations converged to 1.000D-10 1.000D-09 after    12 iterations.
 End of Minotr F.D. properties file   721 does not exist.
 End of Minotr F.D. properties file   722 does not exist.
 End of Minotr F.D. properties file   788 does not exist.

 **********************************************************************

            Population analysis using the SCF density.

 **********************************************************************

 Orbital symmetries:
       Occupied  (A) (A) (A) (A) (A) (A) (A) (A) (A) (A) (A) (A)
                 (A) (A)
       Virtual   (A) (A) (A) (A) (A) (A) (A) (A) (A) (A) (A) (A)
                 (A) (A) (A) (A) (A) (A) (A) (A) (A) (A) (A) (A)
                 (A) (A) (A) (A) (A) (A) (A) (A) (A) (A) (A) (A)
                 (A) (A) (A) (A) (A) (A) (A) (A) (A) (A) (A)
 The electronic state is 1-A.
 Alpha  occ. eigenvalues --  -11.49381  -5.32922  -3.32363  -3.31701  -3.31701
 Alpha  occ. eigenvalues --   -1.14194  -0.89852  -0.89852  -0.89346  -0.88449
 Alpha  occ. eigenvalues --   -0.88449  -0.77658  -0.77658  -0.61626
 Alpha virt. eigenvalues --   -0.22298  -0.10896  -0.10896  -0.01896   0.06410
 Alpha virt. eigenvalues --    0.08795   0.08795   0.11238   0.36684   0.36684
 Alpha virt. eigenvalues --    0.41965   0.41965   0.49805   0.55791   0.55792
 Alpha virt. eigenvalues --    0.55845   0.68481   0.70350   0.70350   0.72989
 Alpha virt. eigenvalues --    0.82984   0.82984   1.06994   1.26010   1.26010
 Alpha virt. eigenvalues --    1.55354   1.58264   1.59339   1.59339   1.60509
 Alpha virt. eigenvalues --    1.60509   1.61179   1.61185   1.82343   1.82344
 Alpha virt. eigenvalues --    1.91546   2.06180   2.06180   2.19889   2.28995
 Alpha virt. eigenvalues --    2.52390   2.52391   2.84971   3.03709   3.03710
 Alpha virt. eigenvalues --   33.39599 121.42662
          Condensed to atoms (all electrons):
               1          2          3          4          5
     1  C    4.802245   0.302769   0.392076   0.392076   0.392075
     2  Hg   0.302769  18.992050  -0.028789  -0.028789  -0.028791
     3  H    0.392076  -0.028789   0.487975  -0.007246  -0.007246
     4  H    0.392076  -0.028789  -0.007246   0.487975  -0.007246
     5  H    0.392075  -0.028791  -0.007246  -0.007246   0.487977
 Mulliken charges:
               1
     1  C   -0.281242
     2  Hg   0.791551
     3  H    0.163230
     4  H    0.163230
     5  H    0.163231
 Sum of Mulliken charges =   1.00000
 Mulliken charges with hydrogens summed into heavy atoms:
               1
     1  C    0.208449
     2  Hg   0.791551
 Electronic spatial extent (au):  <R**2>=            208.8560
 Charge=              1.0000 electrons
 Dipole moment (field-independent basis, Debye):
    X=             -0.0679    Y=              0.2033    Z=              0.6789  Tot=              0.7119
 Quadrupole moment (field-independent basis, Debye-Ang):
   XX=            -26.4015   YY=            -25.7581   ZZ=            -18.4095
   XY=             -0.2420   XZ=             -0.8080   YZ=              2.4180
 Traceless Quadrupole moment (field-independent basis, Debye-Ang):
   XX=             -2.8785   YY=             -2.2350   ZZ=              5.1135
   XY=             -0.2420   XZ=             -0.8080   YZ=              2.4180
 Octapole moment (field-independent basis, Debye-Ang**2):
  XXX=              2.2152  YYY=             -8.1814  ZZZ=            -14.5168  XYY=              1.1000
  XXY=             -1.5673  XXZ=             -8.6867  XZZ=             -0.2709  YZZ=              0.6381
  YYZ=             -7.2133  XYZ=             -0.3373
 Hexadecapole moment (field-independent basis, Debye-Ang**3):
 XXXX=            -31.9266 YYYY=            -45.1524 ZZZZ=           -153.8306 XXXY=              1.1154
 XXXZ=              6.1378 YYYX=              2.9003 YYYZ=            -21.0790 ZZZX=              5.4481
 ZZZY=            -17.5103 XXYY=            -11.3559 XXZZ=            -34.0961 YYZZ=            -32.3761
 XXYZ=             -4.6529 YYXZ=              2.8633 ZZXY=              0.3122
 N-N= 4.988768444108D+01 E-N=-5.044697975477D+02  KE= 9.017494223280D+01
 PrsmSu:  requested number of processors reduced to:  13 ShMem   1 Linda.
   1 Symmetry operations used in ECPInt.
 ECPInt:  NShTT=     378 NPrTT=    1116 LenC2=     379 LenP2D=    1058.
 LDataN:  DoStor=T MaxTD1= 9 Len=  602
 Calling FoFJK, ICntrl=  10002127 FMM=F ISym2X=0 I1Cent= 0 IOpClX= 0 NMat=1 NMatS=1 NMatT=0.
 ***** Axes restored to original set *****
 -------------------------------------------------------------------
 Center     Atomic                   Forces (Hartrees/Bohr)
 Number     Number              X              Y              Z
 -------------------------------------------------------------------
      1        6          -0.008628728   -0.008616366   -0.000010002
      2       80          -0.015841461   -0.015825330   -0.000018283
      3        1           0.012078524    0.004214170    0.006283256
      4        1           0.010037218    0.006274261   -0.007937718
      5        1           0.002354448    0.013953265    0.001682747
 -------------------------------------------------------------------
 Cartesian Forces:  Max     0.015841461 RMS     0.009162996

 GradGradGradGradGradGradGradGradGradGradGradGradGradGradGradGradGradGrad
 Berny optimization.
 FormGI is forming the generalized inverse of G from B-inverse, IUseBI=4.
 Internal  Forces:  Max     0.022391813 RMS     0.008563822
 Search for a local minimum.
 Step number   1 out of a maximum of   24
 All quantities printed in internal units (Hartrees-Bohrs-Radians)
 Mixed Optimization -- RFO/linear search
 Second derivative matrix not updated -- first step.
 The second derivative matrix:
                          R1        R2        R3        R4        A1
           R1           0.11699
           R2           0.00000   0.34648
           R3           0.00000   0.00000   0.34648
           R4           0.00000   0.00000   0.00000   0.34648
           A1           0.00000   0.00000   0.00000   0.00000   0.16000
           A2           0.00000   0.00000   0.00000   0.00000   0.00000
           A3           0.00000   0.00000   0.00000   0.00000   0.00000
           A4           0.00000   0.00000   0.00000   0.00000   0.00000
           A5           0.00000   0.00000   0.00000   0.00000   0.00000
           A6           0.00000   0.00000   0.00000   0.00000   0.00000
           D1           0.00000   0.00000   0.00000   0.00000   0.00000
           D2           0.00000   0.00000   0.00000   0.00000   0.00000
           D3           0.00000   0.00000   0.00000   0.00000   0.00000
           D4           0.00000   0.00000   0.00000   0.00000   0.00000
                          A2        A3        A4        A5        A6
           A2           0.16000
           A3           0.00000   0.16000
           A4           0.00000   0.00000   0.16000
           A5           0.00000   0.00000   0.00000   0.16000
           A6           0.00000   0.00000   0.00000   0.00000   0.16000
           D1           0.00000   0.00000   0.00000   0.00000   0.00000
           D2           0.00000   0.00000   0.00000   0.00000   0.00000
           D3           0.00000   0.00000   0.00000   0.00000   0.00000
           D4           0.00000   0.00000   0.00000   0.00000   0.00000
                          D1        D2        D3        D4
           D1           0.00230
           D2           0.00000   0.00230
           D3           0.00000   0.00000   0.00230
           D4           0.00000   0.00000   0.00000   0.00230
 ITU=  0
     Eigenvalues ---    0.04938   0.05614   0.08895   0.11699   0.16000
     Eigenvalues ---    0.16000   0.34648   0.34648   0.34648
 RFO step:  Lambda=-1.04185526D-02 EMin= 4.93844658D-02
 Linear search not attempted -- first point.
 Iteration  1 RMS(Cart)=  0.07892080 RMS(Int)=  0.00535608
 Iteration  2 RMS(Cart)=  0.00285366 RMS(Int)=  0.00454356
 Iteration  3 RMS(Cart)=  0.00000359 RMS(Int)=  0.00454356
 Iteration  4 RMS(Cart)=  0.00000001 RMS(Int)=  0.00454356
 Variable       Old X    -DE/DX   Delta X   Delta X   Delta X     New X
                                 (Linear)    (Quad)   (Total)
    R1        4.17539  -0.02239   0.00000  -0.17574  -0.17574   3.99964
    R2        2.06250   0.00438   0.00000   0.01226   0.01226   2.07476
    R3        2.06250   0.00438   0.00000   0.01226   0.01226   2.07476
    R4        2.06251   0.00437   0.00000   0.01225   0.01225   2.07476
    A1        1.88723  -0.00294   0.00000  -0.07128  -0.06813   1.81909
    A2        1.88723  -0.00463   0.00000  -0.07513  -0.07256   1.81466
    A3        1.88720  -0.00916   0.00000  -0.07960  -0.07849   1.80872
    A4        1.93345   0.00084   0.00000   0.06606   0.05565   1.98910
    A5        1.93346   0.00707   0.00000   0.07410   0.06644   1.99990
    A6        1.93346   0.00796   0.00000   0.07430   0.06687   2.00033
    D1        2.06513  -0.00590   0.00000  -0.09417  -0.09615   1.96899
    D2       -2.06513   0.00505   0.00000   0.09224   0.09473  -1.97039
    D3        2.06513  -0.00660   0.00000  -0.09682  -0.09981   1.96531
    D4       -2.15293  -0.01166   0.00000  -0.18906  -0.19454  -2.34748
         Item               Value     Threshold  Converged?
 Maximum Force            0.022392     0.000450     NO 
 RMS     Force            0.008564     0.000300     NO 
 Maximum Displacement     0.163678     0.001800     NO 
 RMS     Displacement     0.079102     0.001200     NO 
 Predicted change in Energy=-6.168370D-03
 GradGradGradGradGradGradGradGradGradGradGradGradGradGradGradGradGradGrad

                          Input orientation:                          
 ---------------------------------------------------------------------
 Center     Atomic      Atomic             Coordinates (Angstroms)
 Number     Number       Type             X           Y           Z
 ---------------------------------------------------------------------
      1          6           0       -4.928088    1.532409   -0.000179
      2         80           0       -3.432645    3.030176    0.000275
      3          1           0       -4.617798    0.841074    0.794301
      4          1           0       -4.874389    1.104484   -1.009841
      5          1           0       -5.850858    2.088026    0.212443
 ---------------------------------------------------------------------
                    Distance matrix (angstroms):
                    1          2          3          4          5
     1  C    0.000000
     2  Hg   2.116520   0.000000
     3  H    1.097917   2.612897   0.000000
     4  H    1.097917   2.609071   1.841237   0.000000
     5  H    1.097917   2.603923   1.847670   1.847924   0.000000
 Stoichiometry    CH3Hg(1+)
 Framework group  C1[X(CH3Hg)]
 Deg. of freedom     9
 Full point group                 C1      NOp   1
 Largest Abelian subgroup         C1      NOp   1
 Largest concise Abelian subgroup C1      NOp   1
                         Standard orientation:                         
 ---------------------------------------------------------------------
 Center     Atomic      Atomic             Coordinates (Angstroms)
 Number     Number       Type             X           Y           Z
 ---------------------------------------------------------------------
      1          6           0       -1.893572   -0.000853    0.000021
      2         80           0        0.222948    0.000059   -0.000024
      3          1           0       -2.163633    0.517027   -0.929650
      4          1           0       -2.158889    0.551110    0.911265
      5          1           0       -2.151870   -1.067763    0.020185
 ---------------------------------------------------------------------
 Rotational constants (GHZ):         147.2172110           7.4639752           7.4621866
 Standard basis: def2SVP (5D, 7F)
 There are    67 symmetry adapted cartesian basis functions of A   symmetry.
 There are    61 symmetry adapted basis functions of A   symmetry.
    61 basis functions,   111 primitive gaussians,    67 cartesian basis functions
    14 alpha electrons       14 beta electrons
       nuclear repulsion energy        51.7099479101 Hartrees.
 NAtoms=    5 NActive=    5 NUniq=    5 SFac= 1.00D+00 NAtFMM=   60 NAOKFM=F Big=F
 Integral buffers will be    131072 words long.
 Raffenetti 1 integral format.
 Two-electron integral symmetry is turned on.
 One-electron integrals computed using PRISM.
 PrsmSu:  requested number of processors reduced to:  13 ShMem   1 Linda.
   1 Symmetry operations used in ECPInt.
 ECPInt:  NShTT=     378 NPrTT=    1116 LenC2=     379 LenP2D=    1060.
 LDataN:  DoStor=T MaxTD1= 8 Len=  415
 NBasis=    61 RedAO= T EigKep=  9.77D-03  NBF=    61
 NBsUse=    61 1.00D-06 EigRej= -1.00D+00 NBFU=    61
 Initial guess from the checkpoint file:  "ch3hg_gas_mp2.chk"
 B after Tr=    -0.000000   -0.000000    0.000000
         Rot=    1.000000    0.000000    0.000000   -0.000000 Ang=   0.00 deg.
 ExpMin= 5.64D-02 ExpMax= 1.24D+03 ExpMxC= 1.86D+02 IAcc=2 IRadAn=         4 AccDes= 0.00D+00
 Harris functional with IExCor=  205 and IRadAn=       4 diagonalized for initial guess.
 HarFok:  IExCor=  205 AccDes= 0.00D+00 IRadAn=         4 IDoV= 1 UseB2=F ITyADJ=14
 ICtDFT=  3500011 ScaDFX=  1.000000  1.000000  1.000000  1.000000
 Defaulting to unpruned grid for atomic number  80.
 FoFCou: FMM=F IPFlag=           0 FMFlag=      100000 FMFlg1=           0
         NFxFlg=           0 DoJE=T BraDBF=F KetDBF=T FulRan=T
         wScrn=  0.000000 ICntrl=       500 IOpCl=  0 I1Cent=   200000004 NGrid=           0
         NMat0=    1 NMatS0=      1 NMatT0=    0 NMatD0=    1 NMtDS0=    0 NMtDT0=    0
 Petite list used in FoFCou.
 Keep R1 ints in memory in canonical form, NReq=13478702.
 Requested convergence on RMS density matrix=1.00D-08 within  32 cycles.
 Requested convergence on MAX density matrix=1.00D-06.
 Requested convergence on             energy=1.00D-06.
 No special actions if energy rises.
 SCF Done:  E(RHF) =  -191.812547472     A.U. after    1 cycles
            NFock=  1  Conv=0.64D-09     -V/T= 3.1264
 QCSCF skips out because SCF is already converged.
 ExpMin= 5.64D-02 ExpMax= 1.24D+03 ExpMxC= 1.86D+02 IAcc=3 IRadAn=         5 AccDes= 0.00D+00
 HarFok:  IExCor=  205 AccDes= 0.00D+00 IRadAn=         5 IDoV=-2 UseB2=F ITyADJ=14
 ICtDFT= 12500011 ScaDFX=  1.000000  1.000000  1.000000  1.000000
 Defaulting to unpruned grid for atomic number  80.
 Range of M.O.s used for correlation:     2    61
 NBasis=    61 NAE=    14 NBE=    14 NFC=     1 NFV=     0
 NROrb=     60 NOA=    13 NOB=    13 NVA=    47 NVB=    47
 Disk-based method using ON**2 memory for 13 occupieds at a time.
 Estimated scratch disk usage=     7923271 words.
 Actual    scratch disk usage=     7923271 words.
 GetIJB would need an additional   276847145 words of memory to use all  24 processors.
 JobTyp=1 Pass  1:  I=   2 to  14 NPSUse=  6 ParTrn=T ParDer=T DoDerP=T.
 (rs|ai) integrals will be sorted in core.
 Spin components of T(2) and E(2):
     alpha-alpha T2 =       0.2112970590D-01 E2=     -0.7865958830D-01
     alpha-beta  T2 =       0.1057353824D+00 E2=     -0.3483136897D+00
     beta-beta   T2 =       0.2112970590D-01 E2=     -0.7865958830D-01
 ANorm=    0.1071445190D+01
 E2 =    -0.5056328663D+00 EUMP2 =    -0.19231818033876D+03
          IDoAtm=11111
          Differentiating once with respect to electric field.
                with respect to dipole field.
          Differentiating once with respect to nuclear coordinates.
 Keep R1 ints in memory in canonical form, NReq=13479754.
          There are     1 degrees of freedom in the 1st order CPHF.  IDoFFX=0 NUNeed=     1.
 LinEq1:  Iter=  0 NonCon=     1 RMS=9.24D-03 Max=1.50D-01 NDo=     1
 AX will form     1 AO Fock derivatives at one time.
 LinEq1:  Iter=  1 NonCon=     1 RMS=2.33D-03 Max=2.42D-02 NDo=     1
 LinEq1:  Iter=  2 NonCon=     1 RMS=8.92D-04 Max=9.75D-03 NDo=     1
 LinEq1:  Iter=  3 NonCon=     1 RMS=1.53D-04 Max=1.40D-03 NDo=     1
 LinEq1:  Iter=  4 NonCon=     1 RMS=7.26D-05 Max=7.34D-04 NDo=     1
 LinEq1:  Iter=  5 NonCon=     1 RMS=1.39D-05 Max=1.62D-04 NDo=     1
 LinEq1:  Iter=  6 NonCon=     1 RMS=2.74D-06 Max=2.55D-05 NDo=     1
 LinEq1:  Iter=  7 NonCon=     1 RMS=6.54D-07 Max=5.21D-06 NDo=     1
 LinEq1:  Iter=  8 NonCon=     1 RMS=1.03D-07 Max=7.14D-07 NDo=     1
 LinEq1:  Iter=  9 NonCon=     1 RMS=1.35D-08 Max=1.67D-07 NDo=     1
 LinEq1:  Iter= 10 NonCon=     1 RMS=2.45D-09 Max=2.66D-08 NDo=     1
 LinEq1:  Iter= 11 NonCon=     1 RMS=9.28D-10 Max=7.15D-09 NDo=     1
 LinEq1:  Iter= 12 NonCon=     1 RMS=1.16D-10 Max=8.33D-10 NDo=     1
 LinEq1:  Iter= 13 NonCon=     0 RMS=1.53D-11 Max=1.78D-10 NDo=     1
 Linear equations converged to 1.000D-10 1.000D-09 after    13 iterations.
 End of Minotr F.D. properties file   721 does not exist.
 End of Minotr F.D. properties file   722 does not exist.
 End of Minotr F.D. properties file   788 does not exist.
 PrsmSu:  requested number of processors reduced to:  13 ShMem   1 Linda.
   1 Symmetry operations used in ECPInt.
 ECPInt:  NShTT=     378 NPrTT=    1116 LenC2=     379 LenP2D=    1060.
 LDataN:  DoStor=T MaxTD1= 9 Len=  602
 Calling FoFJK, ICntrl=  10002127 FMM=F ISym2X=0 I1Cent= 0 IOpClX= 0 NMat=1 NMatS=1 NMatT=0.
 ***** Axes restored to original set *****
 -------------------------------------------------------------------
 Center     Atomic                   Forces (Hartrees/Bohr)
 Number     Number              X              Y              Z
 -------------------------------------------------------------------
      1        6          -0.005688594   -0.006219612   -0.000226009
      2       80          -0.000827464   -0.001185127    0.000058192
      3        1           0.002132287    0.002971961    0.000149073
      4        1           0.001924268    0.002836933    0.000161583
      5        1           0.002459503    0.001595845   -0.000142839
 -------------------------------------------------------------------
 Cartesian Forces:  Max     0.006219612 RMS     0.002670608

 GradGradGradGradGradGradGradGradGradGradGradGradGradGradGradGradGradGrad
 Berny optimization.
 Using GEDIIS/GDIIS optimizer.
 FormGI is forming the generalized inverse of G from B-inverse, IUseBI=4.
 Internal  Forces:  Max     0.002886797 RMS     0.001352884
 Search for a local minimum.
 Step number   2 out of a maximum of   24
 All quantities printed in internal units (Hartrees-Bohrs-Radians)
 Mixed Optimization -- RFO/linear search
 Update second derivatives using D2CorX and points    1    2
 DE= -6.03D-03 DEPred=-6.17D-03 R= 9.78D-01
 TightC=F SS=  1.41D+00  RLast= 3.54D-01 DXNew= 5.0454D-01 1.0624D+00
 Trust test= 9.78D-01 RLast= 3.54D-01 DXMaxT set to 5.05D-01
 The second derivative matrix:
                          R1        R2        R3        R4        A1
           R1           0.11655
           R2          -0.00277   0.34781
           R3          -0.00277   0.00133   0.34781
           R4          -0.00307   0.00141   0.00141   0.34796
           A1          -0.02177   0.00422   0.00422   0.00419   0.14635
           A2          -0.01975   0.00359   0.00358   0.00353  -0.01420
           A3          -0.01173   0.00133   0.00133   0.00122  -0.01442
           A4           0.02142  -0.00441  -0.00441  -0.00440   0.01151
           A5           0.01115  -0.00145  -0.00145  -0.00136   0.01232
           A6           0.00922  -0.00093  -0.00093  -0.00083   0.01221
           D1           0.01036  -0.00277  -0.00276  -0.00283   0.00078
           D2          -0.00821   0.00220   0.00220   0.00225  -0.00058
           D3           0.01154  -0.00308  -0.00308  -0.00315   0.00089
           D4           0.01975  -0.00528  -0.00528  -0.00540   0.00146
                          A2        A3        A4        A5        A6
           A2           0.14547
           A3          -0.01405   0.14847
           A4           0.01223   0.01317   0.15057
           A5           0.01210   0.01022  -0.01115   0.15098
           A6           0.01184   0.00953  -0.01121  -0.00848   0.15215
           D1           0.00158   0.00382   0.00016  -0.00297  -0.00342
           D2          -0.00121  -0.00300  -0.00017   0.00233   0.00270
           D3           0.00178   0.00426   0.00016  -0.00331  -0.00382
           D4           0.00299   0.00727   0.00033  -0.00564  -0.00652
                          D1        D2        D3        D4
           D1           0.00468
           D2          -0.00191   0.00383
           D3           0.00264  -0.00212   0.00523
           D4           0.00455  -0.00365   0.00505   0.01099
 ITU=  1  0
 Use linear search instead of GDIIS.
     Eigenvalues ---    0.04333   0.05852   0.09779   0.11639   0.16000
     Eigenvalues ---    0.16272   0.34648   0.34648   0.35087
 RFO step:  Lambda=-1.55172667D-04 EMin= 4.33319971D-02
 Quartic linear search produced a step of  0.16578.
 Iteration  1 RMS(Cart)=  0.01416937 RMS(Int)=  0.00107252
 Iteration  2 RMS(Cart)=  0.00021854 RMS(Int)=  0.00104905
 Iteration  3 RMS(Cart)=  0.00000004 RMS(Int)=  0.00104905
 Variable       Old X    -DE/DX   Delta X   Delta X   Delta X     New X
                                 (Linear)    (Quad)   (Total)
    R1        3.99964  -0.00142  -0.02914   0.01906  -0.01007   3.98957
    R2        2.07476  -0.00116   0.00203  -0.00607  -0.00404   2.07072
    R3        2.07476  -0.00116   0.00203  -0.00607  -0.00404   2.07072
    R4        2.07476  -0.00129   0.00203  -0.00650  -0.00447   2.07029
    A1        1.81909  -0.00088  -0.01129  -0.01210  -0.02269   1.79641
    A2        1.81466  -0.00100  -0.01203  -0.00883  -0.02030   1.79436
    A3        1.80872  -0.00117  -0.01301  -0.00408  -0.01691   1.79181
    A4        1.98910   0.00069   0.00923   0.01308   0.01996   2.00906
    A5        1.99990   0.00082   0.01101   0.00337   0.01251   2.01241
    A6        2.00033   0.00084   0.01109   0.00279   0.01205   2.01238
    D1        1.96899  -0.00131  -0.01594  -0.01356  -0.03002   1.93897
    D2       -1.97039   0.00137   0.01570   0.01531   0.03151  -1.93888
    D3        1.96531  -0.00151  -0.01655  -0.01168  -0.02887   1.93645
    D4       -2.34748  -0.00289  -0.03225  -0.02699  -0.06038  -2.40786
         Item               Value     Threshold  Converged?
 Maximum Force            0.002887     0.000450     NO 
 RMS     Force            0.001353     0.000300     NO 
 Maximum Displacement     0.025588     0.001800     NO 
 RMS     Displacement     0.014149     0.001200     NO 
 Predicted change in Energy=-2.287900D-04
 GradGradGradGradGradGradGradGradGradGradGradGradGradGradGradGradGradGrad

                          Input orientation:                          
 ---------------------------------------------------------------------
 Center     Atomic      Atomic             Coordinates (Angstroms)
 Number     Number       Type             X           Y           Z
 ---------------------------------------------------------------------
      1          6           0       -4.936403    1.523723   -0.000549
      2         80           0       -3.443644    3.016635    0.000602
      3          1           0       -4.608857    0.848946    0.798276
      4          1           0       -4.867905    1.112455   -1.013910
      5          1           0       -5.846968    2.094409    0.212579
 ---------------------------------------------------------------------
                    Distance matrix (angstroms):
                    1          2          3          4          5
     1  C    0.000000
     2  Hg   2.111189   0.000000
     3  H    1.095779   2.587060   0.000000
     4  H    1.095780   2.585277   1.849475   0.000000
     5  H    1.095553   2.582906   1.851253   1.851236   0.000000
 Stoichiometry    CH3Hg(1+)
 Framework group  C1[X(CH3Hg)]
 Deg. of freedom     9
 Full point group                 C1      NOp   1
 Largest Abelian subgroup         C1      NOp   1
 Largest concise Abelian subgroup C1      NOp   1
                         Standard orientation:                         
 ---------------------------------------------------------------------
 Center     Atomic      Atomic             Coordinates (Angstroms)
 Number     Number       Type             X           Y           Z
 ---------------------------------------------------------------------
      1          6           0       -1.889515   -0.000299   -0.000003
      2         80           0        0.221673    0.000026   -0.000011
      3          1           0       -2.134731    0.537139   -0.922912
      4          1           0       -2.132539    0.531833    0.926554
      5          1           0       -2.129512   -1.069237   -0.002768
 ---------------------------------------------------------------------
 Rotational constants (GHZ):         146.4140411           7.5307069           7.5302141
 Standard basis: def2SVP (5D, 7F)
 There are    67 symmetry adapted cartesian basis functions of A   symmetry.
 There are    61 symmetry adapted basis functions of A   symmetry.
    61 basis functions,   111 primitive gaussians,    67 cartesian basis functions
    14 alpha electrons       14 beta electrons
       nuclear repulsion energy        51.9117422214 Hartrees.
 NAtoms=    5 NActive=    5 NUniq=    5 SFac= 1.00D+00 NAtFMM=   60 NAOKFM=F Big=F
 Integral buffers will be    131072 words long.
 Raffenetti 1 integral format.
 Two-electron integral symmetry is turned on.
 One-electron integrals computed using PRISM.
 PrsmSu:  requested number of processors reduced to:  13 ShMem   1 Linda.
   1 Symmetry operations used in ECPInt.
 ECPInt:  NShTT=     378 NPrTT=    1116 LenC2=     379 LenP2D=    1060.
 LDataN:  DoStor=T MaxTD1= 8 Len=  415
 NBasis=    61 RedAO= T EigKep=  9.74D-03  NBF=    61
 NBsUse=    61 1.00D-06 EigRej= -1.00D+00 NBFU=    61
 Initial guess from the checkpoint file:  "ch3hg_gas_mp2.chk"
 B after Tr=     0.000000   -0.000000    0.000000
         Rot=    0.999943   -0.010645    0.000058    0.000137 Ang=  -1.22 deg.
 ExpMin= 5.64D-02 ExpMax= 1.24D+03 ExpMxC= 1.86D+02 IAcc=2 IRadAn=         4 AccDes= 0.00D+00
 Harris functional with IExCor=  205 and IRadAn=       4 diagonalized for initial guess.
 HarFok:  IExCor=  205 AccDes= 0.00D+00 IRadAn=         4 IDoV= 1 UseB2=F ITyADJ=14
 ICtDFT=  3500011 ScaDFX=  1.000000  1.000000  1.000000  1.000000
 Defaulting to unpruned grid for atomic number  80.
 FoFCou: FMM=F IPFlag=           0 FMFlag=      100000 FMFlg1=           0
         NFxFlg=           0 DoJE=T BraDBF=F KetDBF=T FulRan=T
         wScrn=  0.000000 ICntrl=       500 IOpCl=  0 I1Cent=   200000004 NGrid=           0
         NMat0=    1 NMatS0=      1 NMatT0=    0 NMatD0=    1 NMtDS0=    0 NMtDT0=    0
 Petite list used in FoFCou.
 Keep R1 ints in memory in canonical form, NReq=13478858.
 Requested convergence on RMS density matrix=1.00D-08 within  32 cycles.
 Requested convergence on MAX density matrix=1.00D-06.
 Requested convergence on             energy=1.00D-06.
 No special actions if energy rises.
 SCF Done:  E(RHF) =  -191.812175546     A.U. after   10 cycles
            NFock= 10  Conv=0.59D-08     -V/T= 3.1261
 QCSCF skips out because SCF is already converged.
 ExpMin= 5.64D-02 ExpMax= 1.24D+03 ExpMxC= 1.86D+02 IAcc=3 IRadAn=         5 AccDes= 0.00D+00
 HarFok:  IExCor=  205 AccDes= 0.00D+00 IRadAn=         5 IDoV=-2 UseB2=F ITyADJ=14
 ICtDFT= 12500011 ScaDFX=  1.000000  1.000000  1.000000  1.000000
 Defaulting to unpruned grid for atomic number  80.
 Range of M.O.s used for correlation:     2    61
 NBasis=    61 NAE=    14 NBE=    14 NFC=     1 NFV=     0
 NROrb=     60 NOA=    13 NOB=    13 NVA=    47 NVB=    47
 Disk-based method using ON**2 memory for 13 occupieds at a time.
 Estimated scratch disk usage=     7923271 words.
 Actual    scratch disk usage=     7923271 words.
 GetIJB would need an additional   276848135 words of memory to use all  24 processors.
 JobTyp=1 Pass  1:  I=   2 to  14 NPSUse=  6 ParTrn=T ParDer=T DoDerP=T.
 (rs|ai) integrals will be sorted in core.
 Spin components of T(2) and E(2):
     alpha-alpha T2 =       0.2116870655D-01 E2=     -0.7879920160D-01
     alpha-beta  T2 =       0.1058391547D+00 E2=     -0.3486632459D+00
     beta-beta   T2 =       0.2116870655D-01 E2=     -0.7879920160D-01
 ANorm=    0.1071530013D+01
 E2 =    -0.5062616491D+00 EUMP2 =    -0.19231843719539D+03
          IDoAtm=11111
          Differentiating once with respect to electric field.
                with respect to dipole field.
          Differentiating once with respect to nuclear coordinates.
 Keep R1 ints in memory in canonical form, NReq=13479754.
          There are     1 degrees of freedom in the 1st order CPHF.  IDoFFX=0 NUNeed=     1.
 LinEq1:  Iter=  0 NonCon=     1 RMS=9.18D-03 Max=1.47D-01 NDo=     1
 AX will form     1 AO Fock derivatives at one time.
 LinEq1:  Iter=  1 NonCon=     1 RMS=2.32D-03 Max=2.40D-02 NDo=     1
 LinEq1:  Iter=  2 NonCon=     1 RMS=8.87D-04 Max=9.78D-03 NDo=     1
 LinEq1:  Iter=  3 NonCon=     1 RMS=1.51D-04 Max=1.44D-03 NDo=     1
 LinEq1:  Iter=  4 NonCon=     1 RMS=7.02D-05 Max=7.21D-04 NDo=     1
 LinEq1:  Iter=  5 NonCon=     1 RMS=1.40D-05 Max=1.69D-04 NDo=     1
 LinEq1:  Iter=  6 NonCon=     1 RMS=2.79D-06 Max=2.81D-05 NDo=     1
 LinEq1:  Iter=  7 NonCon=     1 RMS=6.69D-07 Max=5.18D-06 NDo=     1
 LinEq1:  Iter=  8 NonCon=     1 RMS=9.82D-08 Max=7.73D-07 NDo=     1
 LinEq1:  Iter=  9 NonCon=     1 RMS=8.58D-09 Max=5.58D-08 NDo=     1
 LinEq1:  Iter= 10 NonCon=     1 RMS=1.01D-09 Max=1.12D-08 NDo=     1
 LinEq1:  Iter= 11 NonCon=     1 RMS=3.89D-10 Max=3.54D-09 NDo=     1
 LinEq1:  Iter= 12 NonCon=     0 RMS=9.55D-11 Max=6.76D-10 NDo=     1
 Linear equations converged to 1.000D-10 1.000D-09 after    12 iterations.
 End of Minotr F.D. properties file   721 does not exist.
 End of Minotr F.D. properties file   722 does not exist.
 End of Minotr F.D. properties file   788 does not exist.
 PrsmSu:  requested number of processors reduced to:  13 ShMem   1 Linda.
   1 Symmetry operations used in ECPInt.
 ECPInt:  NShTT=     378 NPrTT=    1116 LenC2=     379 LenP2D=    1060.
 LDataN:  DoStor=T MaxTD1= 9 Len=  602
 Calling FoFJK, ICntrl=  10002127 FMM=F ISym2X=0 I1Cent= 0 IOpClX= 0 NMat=1 NMatS=1 NMatT=0.
 ***** Axes restored to original set *****
 -------------------------------------------------------------------
 Center     Atomic                   Forces (Hartrees/Bohr)
 Number     Number              X              Y              Z
 -------------------------------------------------------------------
      1        6          -0.002633243   -0.002947018   -0.000122659
      2       80           0.001166618    0.001006797    0.000029925
      3        1           0.000722227    0.000625574    0.000327251
      4        1           0.000544861    0.000646915   -0.000303088
      5        1           0.000199538    0.000667731    0.000068570
 -------------------------------------------------------------------
 Cartesian Forces:  Max     0.002947018 RMS     0.001164105

 GradGradGradGradGradGradGradGradGradGradGradGradGradGradGradGradGradGrad
 Berny optimization.
 Using GEDIIS/GDIIS optimizer.
 FormGI is forming the generalized inverse of G from B-inverse, IUseBI=4.
 Internal  Forces:  Max     0.001536846 RMS     0.000522491
 Search for a local minimum.
 Step number   3 out of a maximum of   24
 All quantities printed in internal units (Hartrees-Bohrs-Radians)
 Mixed Optimization -- En-DIIS/RFO-DIIS
 Update second derivatives using D2CorX and points    1    2    3
 DE= -2.57D-04 DEPred=-2.29D-04 R= 1.12D+00
 TightC=F SS=  1.41D+00  RLast= 9.19D-02 DXNew= 8.4853D-01 2.7561D-01
 Trust test= 1.12D+00 RLast= 9.19D-02 DXMaxT set to 5.05D-01
 The second derivative matrix:
                          R1        R2        R3        R4        A1
           R1           0.14202
           R2           0.00273   0.34867
           R3           0.00275   0.00219   0.34868
           R4           0.00430   0.00270   0.00271   0.34983
           A1          -0.02759   0.00088   0.00088   0.00056   0.13604
           A2          -0.02288   0.00113   0.00113   0.00096  -0.02345
           A3          -0.01206  -0.00049  -0.00048  -0.00051  -0.02409
           A4           0.02637  -0.00169  -0.00170  -0.00144   0.01962
           A5           0.01102  -0.00031  -0.00032  -0.00031   0.01884
           A6           0.00921   0.00032   0.00031   0.00034   0.01912
           D1           0.01589  -0.00193  -0.00193  -0.00157  -0.00254
           D2          -0.01520   0.00083   0.00082   0.00035   0.00183
           D3           0.01887  -0.00181  -0.00181  -0.00132  -0.00262
           D4           0.03407  -0.00264  -0.00262  -0.00168  -0.00445
                          A2        A3        A4        A5        A6
           A2           0.13732
           A3          -0.02236   0.14031
           A4           0.01953   0.02084   0.14420
           A5           0.01767   0.01565  -0.01632   0.14737
           A6           0.01776   0.01532  -0.01670  -0.01233   0.14804
           D1          -0.00085   0.00203   0.00286  -0.00185  -0.00220
           D2           0.00033  -0.00224  -0.00216   0.00191   0.00222
           D3          -0.00069   0.00263   0.00303  -0.00233  -0.00273
           D4          -0.00102   0.00487   0.00520  -0.00424  -0.00495
                          D1        D2        D3        D4
           D1           0.00552
           D2          -0.00328   0.00569
           D3           0.00391  -0.00400   0.00706
           D4           0.00719  -0.00739   0.00876   0.01845
 ITU=  1  1  0
 Use linear search instead of GDIIS.
     Eigenvalues ---    0.02997   0.05912   0.10002   0.14131   0.16000
     Eigenvalues ---    0.16636   0.34648   0.34650   0.35443
 RFO step:  Lambda=-5.27102070D-05 EMin= 2.99742238D-02
 Quartic linear search produced a step of  0.27920.
 Iteration  1 RMS(Cart)=  0.00523319 RMS(Int)=  0.00017307
 Iteration  2 RMS(Cart)=  0.00004856 RMS(Int)=  0.00016534
 Iteration  3 RMS(Cart)=  0.00000000 RMS(Int)=  0.00016534
 Variable       Old X    -DE/DX   Delta X   Delta X   Delta X     New X
                                 (Linear)    (Quad)   (Total)
    R1        3.98957   0.00154  -0.00281   0.01885   0.01604   4.00561
    R2        2.07072   0.00007  -0.00113   0.00088  -0.00025   2.07047
    R3        2.07072   0.00007  -0.00113   0.00088  -0.00024   2.07048
    R4        2.07029   0.00020  -0.00125   0.00140   0.00016   2.07045
    A1        1.79641  -0.00028  -0.00633  -0.00555  -0.01177   1.78464
    A2        1.79436  -0.00028  -0.00567  -0.00431  -0.00989   1.78447
    A3        1.79181  -0.00023  -0.00472  -0.00277  -0.00751   1.78429
    A4        2.00906   0.00022   0.00557   0.00399   0.00922   2.01827
    A5        2.01241   0.00017   0.00349   0.00249   0.00566   2.01807
    A6        2.01238   0.00018   0.00337   0.00256   0.00563   2.01801
    D1        1.93897  -0.00041  -0.00838  -0.00741  -0.01592   1.92305
    D2       -1.93888   0.00039   0.00880   0.00716   0.01601  -1.92287
    D3        1.93645  -0.00039  -0.00806  -0.00566  -0.01381   1.92264
    D4       -2.40786  -0.00079  -0.01686  -0.01282  -0.02982  -2.43768
         Item               Value     Threshold  Converged?
 Maximum Force            0.001537     0.000450     NO 
 RMS     Force            0.000522     0.000300     NO 
 Maximum Displacement     0.010629     0.001800     NO 
 RMS     Displacement     0.005216     0.001200     NO 
 Predicted change in Energy=-3.907932D-05
 GradGradGradGradGradGradGradGradGradGradGradGradGradGradGradGradGradGrad

                          Input orientation:                          
 ---------------------------------------------------------------------
 Center     Atomic      Atomic             Coordinates (Angstroms)
 Number     Number       Type             X           Y           Z
 ---------------------------------------------------------------------
      1          6           0       -4.942028    1.518111   -0.000817
      2         80           0       -3.442335    3.016094    0.000887
      3          1           0       -4.605428    0.851197    0.800659
      4          1           0       -4.866133    1.114527   -1.016598
      5          1           0       -5.847854    2.096239    0.212869
 ---------------------------------------------------------------------
                    Distance matrix (angstroms):
                    1          2          3          4          5
     1  C    0.000000
     2  Hg   2.119678   0.000000
     3  H    1.095645   2.584414   0.000000
     4  H    1.095651   2.584267   1.854652   0.000000
     5  H    1.095635   2.584103   1.854522   1.854488   0.000000
 Stoichiometry    CH3Hg(1+)
 Framework group  C1[X(CH3Hg)]
 Deg. of freedom     9
 Full point group                 C1      NOp   1
 Largest Abelian subgroup         C1      NOp   1
 Largest concise Abelian subgroup C1      NOp   1
                         Standard orientation:                         
 ---------------------------------------------------------------------
 Center     Atomic      Atomic             Coordinates (Angstroms)
 Number     Number       Type             X           Y           Z
 ---------------------------------------------------------------------
      1          6           0       -1.897497    0.000006    0.000016
      2         80           0        0.222181    0.000001    0.000001
      3          1           0       -2.130009    0.975345    0.441706
      4          1           0       -2.129830   -0.870359    0.623662
      5          1           0       -2.129648   -0.105103   -1.065570
 ---------------------------------------------------------------------
 Rotational constants (GHZ):         145.7985747           7.4878459           7.4878045
 Standard basis: def2SVP (5D, 7F)
 There are    67 symmetry adapted cartesian basis functions of A   symmetry.
 There are    61 symmetry adapted basis functions of A   symmetry.
    61 basis functions,   111 primitive gaussians,    67 cartesian basis functions
    14 alpha electrons       14 beta electrons
       nuclear repulsion energy        51.7938434376 Hartrees.
 NAtoms=    5 NActive=    5 NUniq=    5 SFac= 1.00D+00 NAtFMM=   60 NAOKFM=F Big=F
 Integral buffers will be    131072 words long.
 Raffenetti 1 integral format.
 Two-electron integral symmetry is turned on.
 One-electron integrals computed using PRISM.
 PrsmSu:  requested number of processors reduced to:  13 ShMem   1 Linda.
   1 Symmetry operations used in ECPInt.
 ECPInt:  NShTT=     378 NPrTT=    1116 LenC2=     379 LenP2D=    1060.
 LDataN:  DoStor=T MaxTD1= 8 Len=  415
 NBasis=    61 RedAO= T EigKep=  9.74D-03  NBF=    61
 NBsUse=    61 1.00D-06 EigRej= -1.00D+00 NBFU=    61
 Initial guess from the checkpoint file:  "ch3hg_gas_mp2.chk"
 B after Tr=     0.000000    0.000000    0.000000
         Rot=    0.999115    0.042059    0.000014   -0.000008 Ang=   4.82 deg.
 Keep R1 ints in memory in canonical form, NReq=13478858.
 Requested convergence on RMS density matrix=1.00D-08 within  32 cycles.
 Requested convergence on MAX density matrix=1.00D-06.
 Requested convergence on             energy=1.00D-06.
 No special actions if energy rises.
 SCF Done:  E(RHF) =  -191.812249098     A.U. after   10 cycles
            NFock= 10  Conv=0.23D-08     -V/T= 3.1262
 QCSCF skips out because SCF is already converged.
 ExpMin= 5.64D-02 ExpMax= 1.24D+03 ExpMxC= 1.86D+02 IAcc=3 IRadAn=         5 AccDes= 0.00D+00
 HarFok:  IExCor=  205 AccDes= 0.00D+00 IRadAn=         5 IDoV=-2 UseB2=F ITyADJ=14
 ICtDFT= 12500011 ScaDFX=  1.000000  1.000000  1.000000  1.000000
 Defaulting to unpruned grid for atomic number  80.
 Range of M.O.s used for correlation:     2    61
 NBasis=    61 NAE=    14 NBE=    14 NFC=     1 NFV=     0
 NROrb=     60 NOA=    13 NOB=    13 NVA=    47 NVB=    47
 Disk-based method using ON**2 memory for 13 occupieds at a time.
 Estimated scratch disk usage=     7923271 words.
 Actual    scratch disk usage=     7923271 words.
 GetIJB would need an additional   276848135 words of memory to use all  24 processors.
 JobTyp=1 Pass  1:  I=   2 to  14 NPSUse=  6 ParTrn=T ParDer=T DoDerP=T.
 (rs|ai) integrals will be sorted in core.
 Spin components of T(2) and E(2):
     alpha-alpha T2 =       0.2117070647D-01 E2=     -0.7877547263D-01
     alpha-beta  T2 =       0.1060257515D+00 E2=     -0.3486837214D+00
     beta-beta   T2 =       0.2117070647D-01 E2=     -0.7877547263D-01
 ANorm=    0.1071618946D+01
 E2 =    -0.5062346666D+00 EUMP2 =    -0.19231848376415D+03
          IDoAtm=11111
          Differentiating once with respect to electric field.
                with respect to dipole field.
          Differentiating once with respect to nuclear coordinates.
 Keep R1 ints in memory in canonical form, NReq=13479754.
          There are     1 degrees of freedom in the 1st order CPHF.  IDoFFX=0 NUNeed=     1.
 LinEq1:  Iter=  0 NonCon=     1 RMS=9.15D-03 Max=1.45D-01 NDo=     1
 AX will form     1 AO Fock derivatives at one time.
 LinEq1:  Iter=  1 NonCon=     1 RMS=2.31D-03 Max=2.42D-02 NDo=     1
 LinEq1:  Iter=  2 NonCon=     1 RMS=8.77D-04 Max=9.64D-03 NDo=     1
 LinEq1:  Iter=  3 NonCon=     1 RMS=1.47D-04 Max=1.49D-03 NDo=     1
 LinEq1:  Iter=  4 NonCon=     1 RMS=6.52D-05 Max=6.74D-04 NDo=     1
 LinEq1:  Iter=  5 NonCon=     1 RMS=1.41D-05 Max=1.73D-04 NDo=     1
 LinEq1:  Iter=  6 NonCon=     1 RMS=2.87D-06 Max=3.00D-05 NDo=     1
 LinEq1:  Iter=  7 NonCon=     1 RMS=6.88D-07 Max=5.17D-06 NDo=     1
 LinEq1:  Iter=  8 NonCon=     1 RMS=1.01D-07 Max=8.30D-07 NDo=     1
 LinEq1:  Iter=  9 NonCon=     1 RMS=1.03D-08 Max=1.19D-07 NDo=     1
 LinEq1:  Iter= 10 NonCon=     1 RMS=1.38D-09 Max=1.48D-08 NDo=     1
 LinEq1:  Iter= 11 NonCon=     1 RMS=1.42D-10 Max=1.12D-09 NDo=     1
 LinEq1:  Iter= 12 NonCon=     0 RMS=2.03D-11 Max=1.49D-10 NDo=     1
 Linear equations converged to 1.000D-10 1.000D-09 after    12 iterations.
 End of Minotr F.D. properties file   721 does not exist.
 End of Minotr F.D. properties file   722 does not exist.
 End of Minotr F.D. properties file   788 does not exist.
 PrsmSu:  requested number of processors reduced to:  13 ShMem   1 Linda.
   1 Symmetry operations used in ECPInt.
 ECPInt:  NShTT=     378 NPrTT=    1116 LenC2=     379 LenP2D=    1060.
 LDataN:  DoStor=T MaxTD1= 9 Len=  602
 Calling FoFJK, ICntrl=  10002127 FMM=F ISym2X=0 I1Cent= 0 IOpClX= 0 NMat=1 NMatS=1 NMatT=0.
 ***** Axes restored to original set *****
 -------------------------------------------------------------------
 Center     Atomic                   Forces (Hartrees/Bohr)
 Number     Number              X              Y              Z
 -------------------------------------------------------------------
      1        6          -0.000633680   -0.000605117   -0.000010036
      2       80           0.000486452    0.000474384    0.000003237
      3        1           0.000082082    0.000021760    0.000033182
      4        1           0.000066235    0.000027043   -0.000041580
      5        1          -0.000001088    0.000081929    0.000015197
 -------------------------------------------------------------------
 Cartesian Forces:  Max     0.000633680 RMS     0.000288861

 GradGradGradGradGradGradGradGradGradGradGradGradGradGradGradGradGradGrad
 Berny optimization.
 Using GEDIIS/GDIIS optimizer.
 FormGI is forming the generalized inverse of G from B-inverse, IUseBI=4.
 Internal  Forces:  Max     0.000679421 RMS     0.000184960
 Search for a local minimum.
 Step number   4 out of a maximum of   24
 All quantities printed in internal units (Hartrees-Bohrs-Radians)
 Mixed Optimization -- En-DIIS/RFO-DIIS
 Swapping is turned off.
 Update second derivatives using D2CorX and points    1    2    3    4
 DE= -4.66D-05 DEPred=-3.91D-05 R= 1.19D+00
 TightC=F SS=  1.41D+00  RLast= 4.78D-02 DXNew= 8.4853D-01 1.4353D-01
 Trust test= 1.19D+00 RLast= 4.78D-02 DXMaxT set to 5.05D-01
 The second derivative matrix:
                          R1        R2        R3        R4        A1
           R1           0.11706
           R2           0.00494   0.35032
           R3           0.00496   0.00384   0.35032
           R4           0.00543   0.00465   0.00465   0.35210
           A1          -0.01016  -0.00164  -0.00163  -0.00118   0.12319
           A2          -0.00963  -0.00074  -0.00073  -0.00034  -0.03373
           A3          -0.00320  -0.00230  -0.00229  -0.00205  -0.03109
           A4           0.01251   0.00021   0.00021  -0.00008   0.02945
           A5           0.00512   0.00086   0.00086   0.00065   0.02392
           A6           0.00326   0.00168   0.00168   0.00151   0.02411
           D1           0.01316  -0.00082  -0.00084  -0.00081  -0.00238
           D2          -0.01170  -0.00093  -0.00090  -0.00114   0.00193
           D3           0.01546  -0.00027  -0.00030  -0.00009  -0.00266
           D4           0.02716   0.00066   0.00061   0.00105  -0.00459
                          A2        A3        A4        A5        A6
           A2           0.12904
           A3          -0.02806   0.13652
           A4           0.02721   0.02591   0.13658
           A5           0.02192   0.01862  -0.01991   0.14500
           A6           0.02194   0.01817  -0.02022  -0.01463   0.14584
           D1          -0.00064   0.00208   0.00205  -0.00156  -0.00186
           D2           0.00049  -0.00168  -0.00140   0.00110   0.00129
           D3          -0.00077   0.00222   0.00222  -0.00161  -0.00192
           D4          -0.00126   0.00390   0.00362  -0.00271  -0.00321
                          D1        D2        D3        D4
           D1           0.00754
           D2          -0.00494   0.00699
           D3           0.00565  -0.00532   0.00842
           D4           0.01059  -0.01001   0.01144   0.02375
 ITU=  1  1  1  0
     Eigenvalues ---    0.02641   0.05947   0.10112   0.12178   0.16000
     Eigenvalues ---    0.16336   0.34648   0.34648   0.36016
 En-DIIS/RFO-DIIS/Sim-DIIS IScMMF=       -3 using points:     4    3
 RFO step:  Lambda=-5.93711725D-06.
 DidBck=F Rises=F RFO-DIIS coefs:    1.21772   -0.21772
 Iteration  1 RMS(Cart)=  0.00146669 RMS(Int)=  0.00001945
 Iteration  2 RMS(Cart)=  0.00000186 RMS(Int)=  0.00001935
 Iteration  3 RMS(Cart)=  0.00000000 RMS(Int)=  0.00001935
 Variable       Old X    -DE/DX   Delta X   Delta X   Delta X     New X
                                 (Linear)    (Quad)   (Total)
    R1        4.00561   0.00068   0.00349   0.00395   0.00744   4.01306
    R2        2.07047   0.00004  -0.00006   0.00003  -0.00003   2.07044
    R3        2.07048   0.00003  -0.00005   0.00002  -0.00004   2.07044
    R4        2.07045   0.00005   0.00003  -0.00002   0.00001   2.07046
    A1        1.78464  -0.00002  -0.00256   0.00040  -0.00215   1.78249
    A2        1.78447  -0.00002  -0.00215   0.00029  -0.00185   1.78262
    A3        1.78429  -0.00003  -0.00164   0.00012  -0.00152   1.78277
    A4        2.01827  -0.00001   0.00201  -0.00060   0.00136   2.01964
    A5        2.01807   0.00003   0.00123  -0.00001   0.00119   2.01926
    A6        2.01801   0.00004   0.00123   0.00005   0.00124   2.01925
    D1        1.92305  -0.00004  -0.00347   0.00040  -0.00308   1.91997
    D2       -1.92287   0.00003   0.00349  -0.00054   0.00296  -1.91991
    D3        1.92264  -0.00003  -0.00301   0.00043  -0.00258   1.92005
    D4       -2.43768  -0.00006  -0.00649   0.00097  -0.00554  -2.44322
         Item               Value     Threshold  Converged?
 Maximum Force            0.000679     0.000450     NO 
 RMS     Force            0.000185     0.000300     YES
 Maximum Displacement     0.002871     0.001800     NO 
 RMS     Displacement     0.001467     0.001200     NO 
 Predicted change in Energy=-2.970005D-06
 GradGradGradGradGradGradGradGradGradGradGradGradGradGradGradGradGradGrad

                          Input orientation:                          
 ---------------------------------------------------------------------
 Center     Atomic      Atomic             Coordinates (Angstroms)
 Number     Number       Type             X           Y           Z
 ---------------------------------------------------------------------
      1          6           0       -4.943464    1.516758   -0.000857
      2         80           0       -3.440816    3.017357    0.000938
      3          1           0       -4.605117    0.851198    0.800989
      4          1           0       -4.866061    1.114483   -1.017022
      5          1           0       -5.848319    2.096372    0.212952
 ---------------------------------------------------------------------
                    Distance matrix (angstroms):
                    1          2          3          4          5
     1  C    0.000000
     2  Hg   2.123618   0.000000
     3  H    1.095631   2.586102   0.000000
     4  H    1.095631   2.586212   1.855418   0.000000
     5  H    1.095641   2.586355   1.855209   1.855202   0.000000
 Stoichiometry    CH3Hg(1+)
 Framework group  C1[X(CH3Hg)]
 Deg. of freedom     9
 Full point group                 C1      NOp   1
 Largest Abelian subgroup         C1      NOp   1
 Largest concise Abelian subgroup C1      NOp   1
                         Standard orientation:                         
 ---------------------------------------------------------------------
 Center     Atomic      Atomic             Coordinates (Angstroms)
 Number     Number       Type             X           Y           Z
 ---------------------------------------------------------------------
      1          6           0       -1.901105    0.000002    0.000032
      2         80           0        0.222513   -0.000001   -0.000002
      3          1           0       -2.131307    0.935199    0.522355
      4          1           0       -2.131443   -0.920034    0.548563
      5          1           0       -2.131637   -0.015118   -1.070975
 ---------------------------------------------------------------------
 Rotational constants (GHZ):         145.6849871           7.4641948           7.4641363
 Standard basis: def2SVP (5D, 7F)
 There are    67 symmetry adapted cartesian basis functions of A   symmetry.
 There are    61 symmetry adapted basis functions of A   symmetry.
    61 basis functions,   111 primitive gaussians,    67 cartesian basis functions
    14 alpha electrons       14 beta electrons
       nuclear repulsion energy        51.7286856220 Hartrees.
 NAtoms=    5 NActive=    5 NUniq=    5 SFac= 1.00D+00 NAtFMM=   60 NAOKFM=F Big=F
 Integral buffers will be    131072 words long.
 Raffenetti 1 integral format.
 Two-electron integral symmetry is turned on.
 One-electron integrals computed using PRISM.
 PrsmSu:  requested number of processors reduced to:  13 ShMem   1 Linda.
   1 Symmetry operations used in ECPInt.
 ECPInt:  NShTT=     378 NPrTT=    1116 LenC2=     379 LenP2D=    1060.
 LDataN:  DoStor=T MaxTD1= 8 Len=  415
 NBasis=    61 RedAO= T EigKep=  9.74D-03  NBF=    61
 NBsUse=    61 1.00D-06 EigRej= -1.00D+00 NBFU=    61
 Initial guess from the checkpoint file:  "ch3hg_gas_mp2.chk"
 B after Tr=    -0.000000    0.000000   -0.000000
         Rot=    0.999115   -0.042062   -0.000014    0.000008 Ang=  -4.82 deg.
 Keep R1 ints in memory in canonical form, NReq=13478858.
 Requested convergence on RMS density matrix=1.00D-08 within  32 cycles.
 Requested convergence on MAX density matrix=1.00D-06.
 Requested convergence on             energy=1.00D-06.
 No special actions if energy rises.
 SCF Done:  E(RHF) =  -191.812337917     A.U. after   10 cycles
            NFock= 10  Conv=0.23D-08     -V/T= 3.1262
 QCSCF skips out because SCF is already converged.
 ExpMin= 5.64D-02 ExpMax= 1.24D+03 ExpMxC= 1.86D+02 IAcc=3 IRadAn=         5 AccDes= 0.00D+00
 HarFok:  IExCor=  205 AccDes= 0.00D+00 IRadAn=         5 IDoV=-2 UseB2=F ITyADJ=14
 ICtDFT= 12500011 ScaDFX=  1.000000  1.000000  1.000000  1.000000
 Defaulting to unpruned grid for atomic number  80.
 Range of M.O.s used for correlation:     2    61
 NBasis=    61 NAE=    14 NBE=    14 NFC=     1 NFV=     0
 NROrb=     60 NOA=    13 NOB=    13 NVA=    47 NVB=    47
 Disk-based method using ON**2 memory for 13 occupieds at a time.
 Estimated scratch disk usage=     7923271 words.
 Actual    scratch disk usage=     7923271 words.
 GetIJB would need an additional   276847937 words of memory to use all  24 processors.
 JobTyp=1 Pass  1:  I=   2 to  14 NPSUse=  6 ParTrn=T ParDer=T DoDerP=T.
 (rs|ai) integrals will be sorted in core.
 Spin components of T(2) and E(2):
     alpha-alpha T2 =       0.2116610723D-01 E2=     -0.7875080843D-01
     alpha-beta  T2 =       0.1060786060D+00 E2=     -0.3486473543D+00
     beta-beta   T2 =       0.2116610723D-01 E2=     -0.7875080843D-01
 ANorm=    0.1071639315D+01
 E2 =    -0.5061489712D+00 EUMP2 =    -0.19231848688790D+03
          IDoAtm=11111
          Differentiating once with respect to electric field.
                with respect to dipole field.
          Differentiating once with respect to nuclear coordinates.
 Keep R1 ints in memory in canonical form, NReq=13479754.
          There are     1 degrees of freedom in the 1st order CPHF.  IDoFFX=0 NUNeed=     1.
 LinEq1:  Iter=  0 NonCon=     1 RMS=9.14D-03 Max=1.44D-01 NDo=     1
 AX will form     1 AO Fock derivatives at one time.
 LinEq1:  Iter=  1 NonCon=     1 RMS=2.31D-03 Max=2.42D-02 NDo=     1
 LinEq1:  Iter=  2 NonCon=     1 RMS=8.74D-04 Max=9.58D-03 NDo=     1
 LinEq1:  Iter=  3 NonCon=     1 RMS=1.46D-04 Max=1.51D-03 NDo=     1
 LinEq1:  Iter=  4 NonCon=     1 RMS=6.33D-05 Max=6.55D-04 NDo=     1
 LinEq1:  Iter=  5 NonCon=     1 RMS=1.40D-05 Max=1.74D-04 NDo=     1
 LinEq1:  Iter=  6 NonCon=     1 RMS=2.89D-06 Max=3.04D-05 NDo=     1
 LinEq1:  Iter=  7 NonCon=     1 RMS=6.94D-07 Max=5.29D-06 NDo=     1
 LinEq1:  Iter=  8 NonCon=     1 RMS=1.03D-07 Max=8.45D-07 NDo=     1
 LinEq1:  Iter=  9 NonCon=     1 RMS=1.14D-08 Max=1.47D-07 NDo=     1
 LinEq1:  Iter= 10 NonCon=     1 RMS=1.61D-09 Max=1.53D-08 NDo=     1
 LinEq1:  Iter= 11 NonCon=     1 RMS=1.49D-10 Max=1.12D-09 NDo=     1
 LinEq1:  Iter= 12 NonCon=     0 RMS=3.04D-11 Max=2.93D-10 NDo=     1
 Linear equations converged to 1.000D-10 1.000D-09 after    12 iterations.
 End of Minotr F.D. properties file   721 does not exist.
 End of Minotr F.D. properties file   722 does not exist.
 End of Minotr F.D. properties file   788 does not exist.
 PrsmSu:  requested number of processors reduced to:  13 ShMem   1 Linda.
   1 Symmetry operations used in ECPInt.
 ECPInt:  NShTT=     378 NPrTT=    1116 LenC2=     379 LenP2D=    1060.
 LDataN:  DoStor=T MaxTD1= 9 Len=  602
 Calling FoFJK, ICntrl=  10002127 FMM=F ISym2X=0 I1Cent= 0 IOpClX= 0 NMat=1 NMatS=1 NMatT=0.
 ***** Axes restored to original set *****
 -------------------------------------------------------------------
 Center     Atomic                   Forces (Hartrees/Bohr)
 Number     Number              X              Y              Z
 -------------------------------------------------------------------
      1        6          -0.000038105   -0.000004130    0.000008148
      2       80           0.000032430    0.000042141   -0.000001725
      3        1           0.000005210   -0.000030216    0.000000332
      4        1           0.000009497   -0.000024446   -0.000011175
      5        1          -0.000009031    0.000016651    0.000004421
 -------------------------------------------------------------------
 Cartesian Forces:  Max     0.000042141 RMS     0.000020812

 GradGradGradGradGradGradGradGradGradGradGradGradGradGradGradGradGradGrad
 Berny optimization.
 Using GEDIIS/GDIIS optimizer.
 FormGI is forming the generalized inverse of G from B-inverse, IUseBI=4.
 Internal  Forces:  Max     0.000052723 RMS     0.000019604
 Search for a local minimum.
 Step number   5 out of a maximum of   24
 All quantities printed in internal units (Hartrees-Bohrs-Radians)
 Mixed Optimization -- En-DIIS/RFO-DIIS
 Swapping is turned off.
 Update second derivatives using D2CorX and points    1    2    3    4    5
 DE= -3.12D-06 DEPred=-2.97D-06 R= 1.05D+00
 TightC=F SS=  1.41D+00  RLast= 1.12D-02 DXNew= 8.4853D-01 3.3701D-02
 Trust test= 1.05D+00 RLast= 1.12D-02 DXMaxT set to 5.05D-01
 The second derivative matrix:
                          R1        R2        R3        R4        A1
           R1           0.10518
           R2           0.00224   0.35197
           R3           0.00231   0.00550   0.35199
           R4           0.00299   0.00648   0.00649   0.35417
           A1           0.00402  -0.00353  -0.00351  -0.00284   0.12013
           A2           0.00308  -0.00226  -0.00226  -0.00164  -0.03535
           A3           0.00656  -0.00424  -0.00423  -0.00387  -0.03002
           A4           0.00393   0.00151   0.00150   0.00109   0.03226
           A5          -0.00364   0.00219   0.00219   0.00184   0.02302
           A6          -0.00526   0.00325   0.00324   0.00295   0.02286
           D1           0.00504  -0.00034  -0.00036  -0.00055   0.00057
           D2          -0.00547  -0.00191  -0.00189  -0.00202  -0.00069
           D3           0.00793   0.00037   0.00036   0.00040   0.00062
           D4           0.01340   0.00228   0.00225   0.00242   0.00130
                          A2        A3        A4        A5        A6
           A2           0.12822
           A3          -0.02691   0.13894
           A4           0.02885   0.02569   0.13412
           A5           0.02104   0.01674  -0.01962   0.14639
           A6           0.02075   0.01597  -0.01973  -0.01299   0.14776
           D1           0.00102   0.00222  -0.00024  -0.00157  -0.00181
           D2          -0.00090  -0.00158   0.00075   0.00088   0.00098
           D3           0.00120   0.00266  -0.00030  -0.00185  -0.00210
           D4           0.00209   0.00424  -0.00105  -0.00273  -0.00309
                          D1        D2        D3        D4
           D1           0.00567
           D2          -0.00310   0.00521
           D3           0.00367  -0.00341   0.00638
           D4           0.00677  -0.00633   0.00749   0.01612
 ITU=  1  1  1  1  0
     Eigenvalues ---    0.02501   0.05946   0.10130   0.10805   0.16000
     Eigenvalues ---    0.16430   0.34648   0.34651   0.36533
 En-DIIS/RFO-DIIS/Sim-DIIS IScMMF=       -3 using points:     5    4    3
 RFO step:  Lambda=-3.29959320D-08.
 DidBck=F Rises=F RFO-DIIS coefs:    1.11663   -0.13694    0.02031
 Iteration  1 RMS(Cart)=  0.00014951 RMS(Int)=  0.00000181
 Iteration  2 RMS(Cart)=  0.00000001 RMS(Int)=  0.00000181
 Variable       Old X    -DE/DX   Delta X   Delta X   Delta X     New X
                                 (Linear)    (Quad)   (Total)
    R1        4.01306   0.00005   0.00054  -0.00001   0.00053   4.01359
    R2        2.07044   0.00002   0.00000   0.00005   0.00005   2.07050
    R3        2.07044   0.00002   0.00000   0.00005   0.00005   2.07050
    R4        2.07046   0.00002  -0.00000   0.00004   0.00004   2.07050
    A1        1.78249   0.00001  -0.00001   0.00007   0.00006   1.78255
    A2        1.78262   0.00000  -0.00002  -0.00002  -0.00003   1.78259
    A3        1.78277  -0.00002  -0.00002  -0.00012  -0.00015   1.78263
    A4        2.01964  -0.00003  -0.00003  -0.00013  -0.00015   2.01948
    A5        2.01926   0.00001   0.00002   0.00009   0.00011   2.01937
    A6        2.01925   0.00002   0.00003   0.00009   0.00012   2.01937
    D1        1.91997   0.00000  -0.00004   0.00002  -0.00001   1.91996
    D2       -1.91991  -0.00001   0.00002  -0.00004  -0.00003  -1.91994
    D3        1.92005   0.00000  -0.00002  -0.00005  -0.00007   1.91998
    D4       -2.44322   0.00001  -0.00004  -0.00001  -0.00005  -2.44327
         Item               Value     Threshold  Converged?
 Maximum Force            0.000053     0.000450     YES
 RMS     Force            0.000020     0.000300     YES
 Maximum Displacement     0.000356     0.001800     YES
 RMS     Displacement     0.000150     0.001200     YES
 Predicted change in Energy=-1.997677D-08
 Optimization completed.
    -- Stationary point found.
                           ----------------------------
                           !   Optimized Parameters   !
                           ! (Angstroms and Degrees)  !
 --------------------------                            --------------------------
 ! Name  Definition              Value          Derivative Info.                !
 --------------------------------------------------------------------------------
 ! R1    R(1,2)                  2.1236         -DE/DX =    0.0001              !
 ! R2    R(1,3)                  1.0956         -DE/DX =    0.0                 !
 ! R3    R(1,4)                  1.0956         -DE/DX =    0.0                 !
 ! R4    R(1,5)                  1.0956         -DE/DX =    0.0                 !
 ! A1    A(2,1,3)              102.1293         -DE/DX =    0.0                 !
 ! A2    A(2,1,4)              102.1365         -DE/DX =    0.0                 !
 ! A3    A(2,1,5)              102.1454         -DE/DX =    0.0                 !
 ! A4    A(3,1,4)              115.7166         -DE/DX =    0.0                 !
 ! A5    A(3,1,5)              115.6952         -DE/DX =    0.0                 !
 ! A6    A(4,1,5)              115.6945         -DE/DX =    0.0                 !
 ! D1    D(2,1,4,3)            110.0062         -DE/DX =    0.0                 !
 ! D2    D(2,1,5,3)           -110.0028         -DE/DX =    0.0                 !
 ! D3    D(2,1,5,4)            110.011          -DE/DX =    0.0                 !
 ! D4    D(3,1,5,4)           -139.9862         -DE/DX =    0.0                 !
 --------------------------------------------------------------------------------
 GradGradGradGradGradGradGradGradGradGradGradGradGradGradGradGradGradGrad

                          Input orientation:                          
 ---------------------------------------------------------------------
 Center     Atomic      Atomic             Coordinates (Angstroms)
 Number     Number       Type             X           Y           Z
 ---------------------------------------------------------------------
      1          6           0       -4.943464    1.516758   -0.000857
      2         80           0       -3.440816    3.017357    0.000938
      3          1           0       -4.605117    0.851198    0.800989
      4          1           0       -4.866061    1.114483   -1.017022
      5          1           0       -5.848319    2.096372    0.212952
 ---------------------------------------------------------------------
                    Distance matrix (angstroms):
                    1          2          3          4          5
     1  C    0.000000
     2  Hg   2.123618   0.000000
     3  H    1.095631   2.586102   0.000000
     4  H    1.095631   2.586212   1.855418   0.000000
     5  H    1.095641   2.586355   1.855209   1.855202   0.000000
 Stoichiometry    CH3Hg(1+)
 Framework group  C1[X(CH3Hg)]
 Deg. of freedom     9
 Full point group                 C1      NOp   1
 Largest Abelian subgroup         C1      NOp   1
 Largest concise Abelian subgroup C1      NOp   1
                         Standard orientation:                         
 ---------------------------------------------------------------------
 Center     Atomic      Atomic             Coordinates (Angstroms)
 Number     Number       Type             X           Y           Z
 ---------------------------------------------------------------------
      1          6           0       -1.901105    0.000002    0.000032
      2         80           0        0.222513   -0.000001   -0.000002
      3          1           0       -2.131307    0.935199    0.522355
      4          1           0       -2.131443   -0.920034    0.548563
      5          1           0       -2.131637   -0.015118   -1.070975
 ---------------------------------------------------------------------
 Rotational constants (GHZ):         145.6849871           7.4641948           7.4641363

 **********************************************************************

            Population analysis using the SCF density.

 **********************************************************************

 Orbital symmetries:
       Occupied  (A) (A) (A) (A) (A) (A) (A) (A) (A) (A) (A) (A)
                 (A) (A)
       Virtual   (A) (A) (A) (A) (A) (A) (A) (A) (A) (A) (A) (A)
                 (A) (A) (A) (A) (A) (A) (A) (A) (A) (A) (A) (A)
                 (A) (A) (A) (A) (A) (A) (A) (A) (A) (A) (A) (A)
                 (A) (A) (A) (A) (A) (A) (A) (A) (A) (A) (A)
 The electronic state is 1-A.
 Alpha  occ. eigenvalues --  -11.50115  -5.32879  -3.32422  -3.31566  -3.31566
 Alpha  occ. eigenvalues --   -1.15515  -0.90451  -0.90450  -0.89171  -0.88293
 Alpha  occ. eigenvalues --   -0.88293  -0.78913  -0.78909  -0.61289
 Alpha virt. eigenvalues --   -0.21443  -0.10753  -0.10753  -0.02084   0.06931
 Alpha virt. eigenvalues --    0.08033   0.08034   0.11813   0.37960   0.37963
 Alpha virt. eigenvalues --    0.42423   0.42424   0.46421   0.51829   0.53363
 Alpha virt. eigenvalues --    0.53366   0.69889   0.69929   0.69931   0.72170
 Alpha virt. eigenvalues --    0.82691   0.82691   1.13509   1.28487   1.28490
 Alpha virt. eigenvalues --    1.54033   1.56389   1.59112   1.59114   1.60722
 Alpha virt. eigenvalues --    1.60723   1.61398   1.61407   1.78228   1.78231
 Alpha virt. eigenvalues --    1.97093   2.11002   2.13749   2.13759   2.25802
 Alpha virt. eigenvalues --    2.47175   2.47191   2.91115   3.00784   3.00800
 Alpha virt. eigenvalues --   33.40236 121.43024
          Condensed to atoms (all electrons):
               1          2          3          4          5
     1  C    4.799076   0.307225   0.391562   0.391565   0.391567
     2  Hg   0.307225  19.048391  -0.037537  -0.037528  -0.037514
     3  H    0.391562  -0.037537   0.482025  -0.005360  -0.005370
     4  H    0.391565  -0.037528  -0.005360   0.482010  -0.005371
     5  H    0.391567  -0.037514  -0.005370  -0.005371   0.482016
 Mulliken charges:
               1
     1  C   -0.280995
     2  Hg   0.756962
     3  H    0.174679
     4  H    0.174683
     5  H    0.174671
[...]
 Diagonal vibrational polarizability:
        7.7275912       0.6375746       0.6379216
 Harmonic frequencies (cm**-1), IR intensities (KM/Mole), Raman scattering
 activities (A**4/AMU), depolarization ratios for plane and unpolarized
 incident light, reduced masses (AMU), force constants (mDyne/A),
 and Full mass-weighted force constant matrix:
 Low frequencies ---  -15.2990   -5.8087   -4.9656   -0.0003   -0.0002    0.0005
 Low frequencies ---  437.8166  852.5295  852.6829
 Diagonal vibrational polarizability:
        7.7275914       0.6375746       0.6379217
 Harmonic frequencies (cm**-1), IR intensities (KM/Mole), Raman scattering
 activities (A**4/AMU), depolarization ratios for plane and unpolarized
 incident light, reduced masses (AMU), force constants (mDyne/A),
 and normal coordinates:
                      1                      2                      3
                      A                      A                      A
 Frequencies --    437.8166               852.5295               852.6829
 Red. masses --      5.1369                 1.0878                 1.0878
 Frc consts  --      0.5801                 0.4658                 0.4660
 IR Inten    --     43.2535                12.1073                12.1004
  Atom  AN      X      Y      Z        X      Y      Z        X      Y      Z
     1   6     0.59   0.00   0.00    -0.00  -0.01   0.08     0.00  -0.08  -0.01
     2  80    -0.04  -0.00  -0.00     0.00   0.00  -0.00    -0.00   0.00   0.00
     3   1     0.47  -0.02  -0.01    -0.32   0.04  -0.14     0.72   0.10  -0.02
     4   1     0.47   0.02  -0.01    -0.47  -0.02  -0.14    -0.64   0.11   0.05
     5   1     0.47   0.00   0.02     0.79   0.02  -0.08    -0.08   0.16   0.01
                      4                      5                      6
                      A                      A                      A
 Frequencies --   1218.5071              1432.3660              1432.5031
 Red. masses --      1.1468                 1.0765                 1.0765
 Frc consts  --      1.0032                 1.3013                 1.3016
 IR Inten    --     87.3569                 7.7387                 7.7404
  Atom  AN      X      Y      Z        X      Y      Z        X      Y      Z
     1   6    -0.11   0.00   0.00    -0.00  -0.00  -0.08    -0.00  -0.08   0.00
     2  80    -0.00   0.00  -0.00     0.00  -0.00  -0.00     0.00  -0.00   0.00
     3   1     0.56   0.12   0.07    -0.10  -0.38   0.56    -0.18   0.10  -0.39
     4   1     0.56  -0.12   0.07    -0.11   0.39   0.55     0.18   0.11   0.39
     5   1     0.56  -0.00  -0.14     0.21  -0.01  -0.12     0.00   0.78  -0.01
                      7                      8                      9
                      A                      A                      A
 Frequencies --   3118.2548              3313.3595              3313.4964
 Red. masses --      1.0173                 1.1170                 1.1170
 Frc consts  --      5.8278                 7.2247                 7.2255
 IR Inten    --     25.9138                35.9473                35.9812
  Atom  AN      X      Y      Z        X      Y      Z        X      Y      Z
     1   6    -0.03   0.00  -0.00    -0.00  -0.00  -0.10    -0.00  -0.10   0.00
     2  80     0.00   0.00   0.00     0.00   0.00   0.00     0.00   0.00  -0.00
     3   1     0.12  -0.49  -0.28    -0.08   0.35   0.19    -0.14   0.60   0.34
     4   1     0.12   0.49  -0.29    -0.08  -0.34   0.20     0.14   0.59  -0.36
     5   1     0.12   0.01   0.57     0.17   0.01   0.80    -0.00  -0.01  -0.00

 -------------------
 - Thermochemistry -
 -------------------
 Temperature   298.150 Kelvin.  Pressure   1.00000 Atm.
 Atom     1 has atomic number  6 and mass  12.00000
 Atom     2 has atomic number 80 and mass 201.97060
 Atom     3 has atomic number  1 and mass   1.00783
 Atom     4 has atomic number  1 and mass   1.00783
 Atom     5 has atomic number  1 and mass   1.00783
 Molecular mass:   216.99408 amu.
 Principal axes and moments of inertia in atomic units:
                           1         2         3
     Eigenvalues --    12.38797 241.78646 241.78835
           X            1.00000   0.00000   0.00001
           Y           -0.00000   1.00000  -0.00000
           Z           -0.00001   0.00000   1.00000
 This molecule is an asymmetric top.
 Rotational symmetry number  1.
 Rotational temperatures (Kelvin)      6.99178     0.35822     0.35822
 Rotational constants (GHZ):         145.68499     7.46419     7.46414
 Zero-point vibrational energy      95530.9 (Joules/Mol)
                                   22.83243 (Kcal/Mol)
 Warning -- explicit consideration of   1 degrees of freedom as
           vibrations may cause significant error
 Vibrational temperatures:    629.92  1226.60  1226.82  1753.16  2060.86
          (Kelvin)           2061.05  4486.47  4767.19  4767.38
 
 Zero-point correction=                           0.036386 (Hartree/Particle)
 Thermal correction to Energy=                    0.039650
 Thermal correction to Enthalpy=                  0.040594
 Thermal correction to Gibbs Free Energy=         0.009959
 Sum of electronic and zero-point Energies=           -192.282101
 Sum of electronic and thermal Energies=              -192.278837
 Sum of electronic and thermal Enthalpies=            -192.277892
 Sum of electronic and thermal Free Energies=         -192.308527
 
                     E (Thermal)             CV                S
                      KCal/Mol        Cal/Mol-Kelvin    Cal/Mol-Kelvin
 Total                   24.881              8.868             64.477
 Electronic               0.000              0.000              0.000
 Translational            0.889              2.981             42.027
 Rotational               0.889              2.981             21.209
 Vibrational             23.103              2.906              1.240
 Vibration     1          0.798              1.388              0.833
                       Q            Log10(Q)             Ln(Q)
 Total Bot       0.262402D-04         -4.581032        -10.548216
 Total V=0       0.142973D+13         12.155255         27.988509
 Vib (Bot)       0.216802D-16        -16.663937        -38.370133
 Vib (Bot)    1  0.395533D+00         -0.402817         -0.927521
 Vib (V=0)       0.118127D+01          0.072350          0.166592
 Vib (V=0)    1  0.113753D+01          0.055963          0.128860
 Electronic      0.100000D+01          0.000000          0.000000
 Translational   0.125639D+09          8.099126         18.648926
 Rotational      0.963339D+04          3.983779          9.172991
 ***** Axes restored to original set *****
 -------------------------------------------------------------------
 Center     Atomic                   Forces (Hartrees/Bohr)
 Number     Number              X              Y              Z
 -------------------------------------------------------------------
      1        6          -0.000038099   -0.000004135    0.000008150
      2       80           0.000032428    0.000042142   -0.000001726
      3        1           0.000005210   -0.000030218    0.000000333
      4        1           0.000009498   -0.000024448   -0.000011180
      5        1          -0.000009037    0.000016658    0.000004423
 -------------------------------------------------------------------
 Cartesian Forces:  Max     0.000042142 RMS     0.000020813
 FormGI is forming the generalized inverse of G from B-inverse, IUseBI=4.

 GradGradGradGradGradGradGradGradGradGradGradGradGradGradGradGradGradGrad
 Berny optimization.
 Internal  Forces:  Max     0.000052723 RMS     0.000019605
 Search for a local minimum.
 Step number   1 out of a maximum of    2
 All quantities printed in internal units (Hartrees-Bohrs-Radians)
 Second derivative matrix not updated -- analytic derivatives used.
 The second derivative matrix:
                          R1        R2        R3        R4        A1
           R1           0.10630
           R2           0.00107   0.37229
           R3           0.00107  -0.00256   0.37229
           R4           0.00106  -0.00255  -0.00255   0.37227
           A1           0.00265  -0.00110   0.00031  -0.00003   0.01508
           A2           0.00421   0.00070  -0.00114  -0.00088  -0.00479
           A3           0.00857  -0.00041  -0.00016  -0.00211  -0.01251
           A4           0.00048   0.00321   0.00306  -0.00643  -0.00675
           A5          -0.00520   0.00415  -0.00659   0.00407  -0.00748
           A6          -0.00584  -0.00680   0.00421   0.00442   0.01575
           D1           0.00581   0.00041   0.00093  -0.00315   0.01225
           D2          -0.00609  -0.00013   0.00240  -0.00037  -0.00740
           D3           0.00767  -0.00216   0.00026  -0.00049  -0.00668
           D4           0.01376  -0.00203  -0.00214  -0.00012   0.00072
                          A2        A3        A4        A5        A6
           A2           0.02829
           A3          -0.02151   0.05701
           A4          -0.00130   0.02202   0.05028
           A5           0.01660  -0.02202  -0.02804   0.06657
           A6          -0.01666  -0.01572  -0.03180  -0.02971   0.07288
           D1           0.01053  -0.01859   0.01158  -0.01036  -0.00409
           D2           0.01165  -0.00998   0.00631  -0.00507   0.00269
           D3           0.01397   0.00190  -0.00139  -0.00540   0.00050
           D4           0.00232   0.01188  -0.00770  -0.00033  -0.00219
              Iteration  1 RMS(Cart)=  0.00017312 RMS(Int)=  0.00000002
 Iteration  2 RMS(Cart)=  0.00000001 RMS(Int)=  0.00000001
 Variable       Old X    -DE/DX   Delta X   Delta X   Delta X     New X
                                 (Linear)    (Quad)   (Total)
    R1        4.01306   0.00005   0.00000   0.00053   0.00053   4.01358
    R2        2.07044   0.00002   0.00000   0.00006   0.00006   2.07050
    R3        2.07044   0.00002   0.00000   0.00006   0.00006   2.07050
    R4       Iteration  1 RMS(Cart)=  0.00017313 RMS(Int)=  0.00000002
 Iteration  2 RMS(Cart)=  0.00000001 RMS(Int)=  0.00000001
 Variable       Old X    -DE/DX   Delta X   Delta X   Delta X     New X
                                 (Linear)    (Quad)   (Total)
    R1        4.01306   0.00005   0.00000   0.00053   0.00053   4.01358
    R2        2.07044   0.00002   0.00000   0.00006   0.00006   2.07050
    R3        2.07044   0.00002   0.00000   0.00006   0.00006   2.07050
    R4        2.07046   0.00002   0.00000   0.00004   0.00004   2.07050
    A1        1.78249   0.00001   0.00000   0.00010   0.00010   1.78259
    A2        1.78262   0.00000   0.00000  -0.00003  -0.00003   1.78259
    A3        1.78277  -0.00002   0.00000  -0.00018  -0.00018   1.78259
    A4        2.01964  -0.00003   0.00000  -0.00023  -0.00023   2.01941
    A5        2.01926   0.00001   0.00000   0.00015   0.00015   2.01941
    A6        2.01925   0.00002   0.00000   0.00016   0.00016   2.01941
    D1        1.91997   0.00000   0.00000   0.00001   0.00001   1.91998
    D2       -1.91991  -0.00001   0.00000  -0.00006  -0.00006  -1.91998
    D3        1.92005   0.00000   0.00000  -0.00008  -0.00008   1.91998
    D4       -2.44322   0.00001   0.00000  -0.00001  -0.00001  -2.44323
         Item               Value     Threshold  Converged?
 Maximum Force            0.000053     0.000450     YES
 RMS     Force            0.000020     0.000300     YES
 Maximum Displacement     0.000390     0.001800     YES
 RMS     Displacement     0.000173     0.001200     YES
 Predicted change in Energy=-2.252467D-08
 Optimization completed.
    -- Stationary point found.
                           ----------------------------
                           !   Optimized Parameters   !
                           ! (Angstroms and Degrees)  !
 --------------------------                            --------------------------
 ! Name  Definition              Value          Derivative Info.                !
 --------------------------------------------------------------------------------
 ! R1    R(1,2)                  2.1236         -DE/DX =    0.0001              !
 ! R2    R(1,3)                  1.0956         -DE/DX =    0.0                 !
 ! R3    R(1,4)                  1.0956         -DE/DX =    0.0                 !
 ! R4    R(1,5)                  1.0956         -DE/DX =    0.0                 !
 ! A1    A(2,1,3)              102.1293         -DE/DX =    0.0                 !
 ! A2    A(2,1,4)              102.1365         -DE/DX =    0.0                 !
 ! A3    A(2,1,5)              102.1454         -DE/DX =    0.0                 !
 ! A4    A(3,1,4)              115.7166         -DE/DX =    0.0                 !
 ! A5    A(3,1,5)              115.6952         -DE/DX =    0.0                 !
 ! A6    A(4,1,5)              115.6945         -DE/DX =    0.0                 !
 ! D1    D(2,1,4,3)            110.0062         -DE/DX =    0.0                 !
 ! D2    D(2,1,5,3)           -110.0028         -DE/DX =    0.0                 !
 ! D3    D(2,1,5,4)            110.011          -DE/DX =    0.0                 !
 ! D4    D(3,1,5,4)           -139.9862         -DE/DX =    0.0                 !
 --------------------------------------------------------------------------------
 GradGradGradGradGradGradGradGradGradGradGradGradGradGradGradGradGradGrad


 ----------------------------------------------------------------------

 Electric dipole moment (input orientation):
 (Debye = 10**-18 statcoulomb cm , SI units = C m)
                  (au)            (Debye)         (10**-30 SI)
   Tot        0.827692D+00      0.210378D+01      0.701747D+01
   x         -0.585666D+00     -0.148861D+01     -0.496548D+01
   y         -0.584867D+00     -0.148658D+01     -0.495871D+01
   z         -0.678797D-03     -0.172533D-02     -0.575508D-02

 Dipole polarizability, Alpha (input orientation).
 (esu units = cm**3 , SI units = C**2 m**2 J**-1)
 Alpha(0;0):
               (au)            (10**-24 esu)      (10**-40 SI)
   iso        0.360754D+02      0.534583D+01      0.594803D+01
   aniso      0.259448D+02      0.384462D+01      0.427772D+01
   xx         0.404182D+02      0.598935D+01      0.666405D+01
   yx         0.129726D+02      0.192234D+01      0.213889D+01
   yy         0.403805D+02      0.598377D+01      0.665785D+01
   zx         0.156791D-01      0.232340D-02      0.258513D-02
   zy         0.153665D-01      0.227708D-02      0.253359D-02
   zz         0.274276D+02      0.406435D+01      0.452220D+01

 ----------------------------------------------------------------------

 Dipole orientation:
     6         -6.09613218          6.10748982          4.58478753
    80         -6.09606189          6.10756174          0.57173189
     1         -4.07557199          6.22905437          5.01986280
     1         -7.00151589          4.29708161          5.02003062
     1         -7.21143644          7.79661484          5.02040890

 Electric dipole moment (dipole orientation):
 (Debye = 10**-18 statcoulomb cm , SI units = C m)
                  (au)            (Debye)         (10**-30 SI)
   Tot        0.827692D+00      0.210378D+01      0.701747D+01
   x          0.000000D+00      0.000000D+00      0.000000D+00
   y          0.000000D+00      0.000000D+00      0.000000D+00
   z          0.827692D+00      0.210378D+01      0.701747D+01

 Dipole polarizability, Alpha (dipole orientation).
 (esu units = cm**3 , SI units = C**2 m**2 J**-1)
 Alpha(0;0):
               (au)            (10**-24 esu)      (10**-40 SI)
   iso        0.360754D+02      0.534583D+01      0.594803D+01
   aniso      0.259448D+02      0.384462D+01      0.427772D+01
   xx         0.274274D+02      0.406432D+01      0.452216D+01
   yx         0.417839D-03      0.619173D-04      0.688923D-04
   yy         0.274270D+02      0.406425D+01      0.452209D+01
   zx        -0.126586D-02     -0.187581D-03     -0.208712D-03
   zy         0.311693D-03      0.461881D-04      0.513912D-04
   zz         0.533719D+02      0.790891D+01      0.879985D+01

 ----------------------------------------------------------------------

 Test job not archived.
 1\1\GINC-GRANADO-COMPUTE-9\Freq\RMP2-FC\def2SVP\C1H3Hg1(1+)\ROOT\13-Au
 g-2023\0\\#N Geom=AllCheck Guess=TCheck SCRF=Check Test GenChk RMP2(FC
 )/def2SVP Freq\\Optimization MeHg-adfd-def2svp-solvation\\1,1\C,-4.943
 4641665,1.5167579499,-0.0008572844\Hg,-3.4408159757,3.0173567819,0.000
 9375278\H,-4.6051164991,0.8511976549,0.8009890482\H,-4.8660612298,1.11
 4483224,-1.0170224438\H,-5.8483191288,2.0963723893,0.2129521521\\Versi
 on=EM64L-G16RevA.03\State=1-A\HF=-191.8123379\MP2=-192.3184869\RMSD=2.
 987e-10\RMSF=2.081e-05\ZeroPoint=0.0363858\Thermal=0.0396503\Dipole=-0
 .5856661,-0.584867,-0.0006788\DipoleDeriv=0.4286652,0.6007482,0.000706
 2,0.6008047,0.4271131,0.0007343,0.0006901,0.0007182,-0.1729693,0.50333
 51,-0.2633678,-0.0003179,-0.2633361,0.5041077,-0.0003157,-0.000324,-0.
 0003218,0.7670643,-0.0084184,-0.1696341,0.0451572,-0.0515488,0.0502779
 ,0.002208,-0.0491553,-0.0921037,0.1389554,-0.0035404,-0.128479,-0.0433
 996,-0.0720438,0.0245634,-0.0172731,0.076216,0.1021069,0.1598732,0.079
 9584,-0.0392674,-0.0021459,-0.2138759,-0.0060621,0.0146465,-0.0274268,
 -0.0103996,0.1070764\Polar=40.4181617,12.9725831,40.3805072,0.0156791,
 0.0153665,27.4275925\PG=C01 [X(C1H3Hg1)]\NImag=0\\0.41269991,-0.209529
 87,0.41314599,-0.00021639,-0.00025784,0.62259417,-0.03798237,-0.023740
 59,-0.00002865,0.05855820,-0.02374258,-0.03791980,-0.00002858,0.047800
 10,0.05843813,-0.00002810,-0.00002803,-0.01421104,0.00005662,0.0000554
 1,0.01070033,-0.07230989,0.06693989,-0.06733768,-0.00312808,-0.0131659
 3,0.00825908,0.07225099,0.07050731,-0.15984782,0.14009576,-0.00271686,
 -0.01076241,0.00618018,-0.06602082,0.16107598,-0.07018857,0.13725296,-
 0.22062314,-0.00008468,-0.00216552,0.00135658,0.07450729,-0.14545207,0
 .22065146,-0.04509400,0.01786483,0.01703553,-0.00561435,-0.00992462,-0
 .00980126,0.00293771,-0.00305808,-0.00785706,0.04235780,0.01957244,-0.
 08665045,-0.10857238,-0.00493068,-0.00925615,-0.00853447,-0.00064267,0
 .01235693,0.01770449,-0.01299542,0.08449701,0.02065003,-0.10497221,-0.
 32103875,0.00077967,0.00202768,0.00234169,0.00347799,-0.01056665,-0.00
 961998,-0.02198589,0.11121873,0.32712105,-0.25731364,0.14846575,0.0505
 4719,-0.01183341,-0.00096697,0.00151366,0.00024927,0.00128845,0.003623
 02,0.00541284,-0.00100366,-0.00292180,0.26348494,0.14319270,-0.1287279
 3,-0.03123695,-0.01641196,-0.00049978,0.00232692,0.01288954,-0.0028226
 8,-0.00733985,0.00811329,-0.00094734,0.00229245,-0.14778357,0.13299772
 ,0.04978303,-0.03199487,-0.06672124,-0.00072296,0.00011102,-0.00018756
 ,-0.01890667,0.00974279,0.00823509,0.02260867,-0.01181637,0.00119599,-
 0.05276207,0.03395744,0.05747772\\0.00003810,0.00000413,-0.00000815,-0
 .00003243,-0.00004214,0.00000173,-0.00000521,0.00003022,-0.00000033,-0
 .00000950,0.00002445,0.00001118,0.00000904,-0.00001666,-0.00000442\\\@


 Until you make peace with who you are,
 you'll never be content with what you have.
                           -- Doris Mortman
 Job cpu time:       0 days  0 hours 51 minutes 57.4 seconds.
 Elapsed time:       0 days  0 hours 56 minutes 11.0 seconds.
 File lengths (MBytes):  RWF=    192 Int=      0 D2E=      0 Chk=      2 Scr=      1
 Normal termination of Gaussian 16 at Sun Aug 13 01:47:47 2023.
YS HAVE GOT IT MADE, IN ROOMS FREE OF POLLUTION.
     INSTEAD OF PROBLEMS WITH THE REFLUX, THEY HAVE ONLY SOLUTIONS.
 AND WHEN THE FEDS ANNOUNCE THE LIST OF CARCINOGENIC TERRORS,
     THE THEORISTS SIT SAFELY AT THEIR TERMINALS FIXING ERRORS.
 IN OTHER WORDS, EXPERIMENTALISTS WILL LIKELY DIE OF CANCER
     FROM WORKING HARD YET FRUITLESSLY...TILL THEORY GIVES THE ANSWER.
          -- THOMAS A. HOLME, 1983
 Job cpu time:       0 days  0 hours 57 minutes 18.8 seconds.
 Elapsed time:       0 days  0 hours 40 minutes  6.5 seconds.
 File lengths (MBytes):  RWF=    192 Int=      0 D2E=      0 Chk=      2 Scr=      1
 Normal termination of Gaussian 16 at Sun Aug 13 01:08:53 2023.
