 Entering Gaussian System, Link 0=g16
 Input=input.gjf
 Output=input.log
 Initial command:
 /opt/ohpc/pub/apps/gaussian/G16x86_64_legacy_CPUs_linux_binary/g16/l1.exe "/tmp/Gau-34967.inp" -scrdir="/tmp/"
 Entering Link 1 = /opt/ohpc/pub/apps/gaussian/G16x86_64_legacy_CPUs_linux_binary/g16/l1.exe PID=     35084.
  
 Copyright (c) 1988,1990,1992,1993,1995,1998,2003,2009,2016,
            Gaussian, Inc.  All Rights Reserved.
  
 This is part of the Gaussian(R) 16 program.  It is based on
 the Gaussian(R) 09 system (copyright 2009, Gaussian, Inc.),
 the Gaussian(R) 03 system (copyright 2003, Gaussian, Inc.),
 the Gaussian(R) 98 system (copyright 1998, Gaussian, Inc.),
 the Gaussian(R) 94 system (copyright 1995, Gaussian, Inc.),
 the Gaussian 92(TM) system (copyright 1992, Gaussian, Inc.),
 the Gaussian 90(TM) system (copyright 1990, Gaussian, Inc.),
 the Gaussian 88(TM) system (copyright 1988, Gaussian, Inc.),
 the Gaussian 86(TM) system (copyright 1986, Carnegie Mellon
 University), and the Gaussian 82(TM) system (copyright 1983,
 Carnegie Mellon University). Gaussian is a federally registered
 trademark of Gaussian, Inc.
  
 This software contains proprietary and confidential information,
 including trade secrets, belonging to Gaussian, Inc.
  
 This software is provided under written license and may be
 used, copied, transmitted, or stored only in accord with that
 written license.
  
 The following legend is applicable only to US Government
 contracts under FAR:
  
                    RESTRICTED RIGHTS LEGEND
  
 Use, reproduction and disclosure by the US Government is
 subject to restrictions as set forth in subparagraphs (a)
 and (c) of the Commercial Computer Software - Restricted
 Rights clause in FAR 52.227-19.
  
 Gaussian, Inc.
 340 Quinnipiac St., Bldg. 40, Wallingford CT 06492
  
  
 ---------------------------------------------------------------
 Warning -- This program may not be used in any manner that
 competes with the business of Gaussian, Inc. or will provide
 assistance to any competitor of Gaussian, Inc.  The licensee
 of this program is prohibited from giving any competitor of
 Gaussian, Inc. access to this program.  By using this program,
 the user acknowledges that Gaussian, Inc. is engaged in the
 business of creating and licensing software in the field of
 computational chemistry and represents and warrants to the
 licensee that it is not a competitor of Gaussian, Inc. and that
 it will not use this program in any manner prohibited above.
 ---------------------------------------------------------------
  

 Cite this work as:
 Gaussian 16, Revision A.03,
 M. J. Frisch, G. W. Trucks, H. B. Schlegel, G. E. Scuseria, 
 M. A. Robb, J. R. Cheeseman, G. Scalmani, V. Barone, 
 G. A. Petersson, H. Nakatsuji, X. Li, M. Caricato, A. V. Marenich, 
 J. Bloino, B. G. Janesko, R. Gomperts, B. Mennucci, H. P. Hratchian, 
 J. V. Ortiz, A. F. Izmaylov, J. L. Sonnenberg, D. Williams-Young, 
 F. Ding, F. Lipparini, F. Egidi, J. Goings, B. Peng, A. Petrone, 
 T. Henderson, D. Ranasinghe, V. G. Zakrzewski, J. Gao, N. Rega, 
 G. Zheng, W. Liang, M. Hada, M. Ehara, K. Toyota, R. Fukuda, 
 J. Hasegawa, M. Ishida, T. Nakajima, Y. Honda, O. Kitao, H. Nakai, 
 T. Vreven, K. Throssell, J. A. Montgomery, Jr., J. E. Peralta, 
 F. Ogliaro, M. J. Bearpark, J. J. Heyd, E. N. Brothers, K. N. Kudin, 
 V. N. Staroverov, T. A. Keith, R. Kobayashi, J. Normand, 
 K. Raghavachari, A. P. Rendell, J. C. Burant, S. S. Iyengar, 
 J. Tomasi, M. Cossi, J. M. Millam, M. Klene, C. Adamo, R. Cammi, 
 J. W. Ochterski, R. L. Martin, K. Morokuma, O. Farkas, 
 J. B. Foresman, and D. J. Fox, Gaussian, Inc., Wallingford CT, 2016.
 
 ******************************************
 Gaussian 16:  EM64L-G16RevA.03 25-Dec-2016
                25-Aug-2022 
 ******************************************
 %NProcShared=24
 Will use up to   24 processors via shared memory.
 %Chk=ch3hgSH_gas_apfd_def2svp.chk
 ----------------------
 #Opt Freq apfd/def2svp
 ----------------------
 1/18=20,19=15,26=3,38=1/1,3;
 2/9=110,12=2,17=6,18=5,40=1/2;
 3/5=43,7=101,11=2,25=1,30=1,71=1,74=-44/1,2,3;
 4//1;
 5/5=2,38=5/2;
 6/7=2,8=2,9=2,10=2,28=1/1;
 7//1,2,3,16;
 1/18=20,19=15,26=3/3(2);
 2/9=110/2;
 99//99;
 2/9=110/2;
 3/5=43,7=101,11=2,25=1,30=1,71=1,74=-44/1,2,3;
 4/5=5,16=3,69=1/1;
 5/5=2,38=5/2;
 7//1,2,3,16;
 1/18=20,19=15,26=3/3(-5);
 2/9=110/2;
 6/7=2,8=2,9=2,10=2,19=2,28=1/1;
 99/9=1/99;
 ------------------------------------------
 Optimization MeHgSH-gas-apfd-def2svp phase
 ------------------------------------------
 Symbolic Z-matrix:
 Charge =  0 Multiplicity = 1
 C                    -9.36254   1.35064   0.00033 
 Hg                   -7.22772   1.61449   0.00072 
 H                    -9.69627   1.11158   1.00277 
 H                    -9.62435   0.54307  -0.67273 
 H                    -9.83642   2.26673  -0.33154 
 S                    -4.79952   1.97511   0.00087 
 H                    -4.38272   0.68446  -0.00042 
 

 GradGradGradGradGradGradGradGradGradGradGradGradGradGradGradGradGradGrad
 Berny optimization.
 Initialization pass.
                           ----------------------------
                           !    Initial Parameters    !
                           ! (Angstroms and Degrees)  !
 --------------------------                            --------------------------
 ! Name  Definition              Value          Derivative Info.                !
 --------------------------------------------------------------------------------
 ! R1    R(1,2)                  2.1511         estimate D2E/DX2                !
 ! R2    R(1,3)                  1.0832         estimate D2E/DX2                !
 ! R3    R(1,4)                  1.0834         estimate D2E/DX2                !
 ! R4    R(1,5)                  1.0835         estimate D2E/DX2                !
 ! R5    R(2,6)                  2.4548         estimate D2E/DX2                !
 ! R6    R(6,7)                  1.3563         estimate D2E/DX2                !
 ! A1    A(2,1,3)              109.4308         estimate D2E/DX2                !
 ! A2    A(2,1,4)              109.3528         estimate D2E/DX2                !
 ! A3    A(2,1,5)              109.2942         estimate D2E/DX2                !
 ! A4    A(3,1,4)              109.6306         estimate D2E/DX2                !
 ! A5    A(3,1,5)              109.5904         estimate D2E/DX2                !
 ! A6    A(4,1,5)              109.5277         estimate D2E/DX2                !
 ! A7    A(2,6,7)               99.45           estimate D2E/DX2                !
 ! A8    L(1,2,6,7,-1)         181.402          estimate D2E/DX2                !
 ! A9    L(1,2,6,7,-2)         179.9809         estimate D2E/DX2                !
 ! D1    D(3,1,6,7)             79.2365         estimate D2E/DX2                !
 ! D2    D(4,1,6,7)            -41.2979         estimate D2E/DX2                !
 ! D3    D(5,1,6,7)           -161.092          estimate D2E/DX2                !
 --------------------------------------------------------------------------------
 Trust Radius=3.00D-01 FncErr=1.00D-07 GrdErr=1.00D-06 EigMax=2.50D+02 EigMin=1.00D-04
 Number of steps in this run=     28 maximum allowed number of steps=    100.
 GradGradGradGradGradGradGradGradGradGradGradGradGradGradGradGradGradGrad

                          Input orientation:                          
 ---------------------------------------------------------------------
 Center     Atomic      Atomic             Coordinates (Angstroms)
 Number     Number       Type             X           Y           Z
 ---------------------------------------------------------------------
      1          6           0       -9.362536    1.350640    0.000330
      2         80           0       -7.227724    1.614486    0.000717
      3          1           0       -9.696274    1.111583    1.002768
      4          1           0       -9.624354    0.543067   -0.672731
      5          1           0       -9.836422    2.266727   -0.331541
      6         16           0       -4.799524    1.975112    0.000869
      7          1           0       -4.382717    0.684464   -0.000421
 ---------------------------------------------------------------------
                    Distance matrix (angstroms):
                    1          2          3          4          5
     1  C    0.000000
     2  Hg   2.151055   0.000000
     3  H    1.083241   2.711228   0.000000
     4  H    1.083390   2.710223   1.770785   0.000000
     5  H    1.083477   2.709450   1.770418   1.769855   0.000000
     6  S    4.605545   2.454833   5.072243   5.077743   5.056271
     7  H    5.024180   2.993160   5.424270   5.286469   5.688242
                    6          7
     6  S    0.000000
     7  H    1.356282   0.000000
 Stoichiometry    CH4HgS
 Framework group  C1[X(CH4HgS)]
 Deg. of freedom    15
 Full point group                 C1      NOp   1
 Largest Abelian subgroup         C1      NOp   1
 Largest concise Abelian subgroup C1      NOp   1
                         Standard orientation:                         
 ---------------------------------------------------------------------
 Center     Atomic      Atomic             Coordinates (Angstroms)
 Number     Number       Type             X           Y           Z
 ---------------------------------------------------------------------
      1          6           0        2.354205    0.014033   -0.000067
      2         80           0        0.203206   -0.001455    0.000065
      3          1           0        2.713211    0.211910    1.002614
      4          1           0        2.707628    0.786648   -0.672296
      5          1           0        2.719139   -0.950320   -0.332888
      6         16           0       -2.250396   -0.079186   -0.000135
      7          1           0       -2.515331    1.250969   -0.000089
 ---------------------------------------------------------------------
 Rotational constants (GHZ):         103.1765803           1.8929681           1.8807276
 Standard basis: def2SVP (5D, 7F)
 There are    91 symmetry adapted cartesian basis functions of A   symmetry.
 There are    84 symmetry adapted basis functions of A   symmetry.
    84 basis functions,   155 primitive gaussians,    91 cartesian basis functions
    23 alpha electrons       23 beta electrons
       nuclear repulsion energy       146.6485017024 Hartrees.
 NAtoms=    7 NActive=    7 NUniq=    7 SFac= 1.00D+00 NAtFMM=   60 NAOKFM=F Big=F
 Integral buffers will be    131072 words long.
 Raffenetti 2 integral format.
 Two-electron integral symmetry is turned on.
 R6APFD:  NTU= -4 IXU= 1 FactS= 1.050
 Nuclear repulsion after empirical dispersion term =      146.6268479783 Hartrees.
 One-electron integrals computed using PRISM.
 PrsmSu:  requested number of processors reduced to:  13 ShMem   1 Linda.
   1 Symmetry operations used in ECPInt.
 ECPInt:  NShTT=     741 NPrTT=    2476 LenC2=     732 LenP2D=    2078.
 LDataN:  DoStor=T MaxTD1= 8 Len=  415
 NBasis=    84 RedAO= T EigKep=  8.92D-03  NBF=    84
 NBsUse=    84 1.00D-06 EigRej= -1.00D+00 NBFU=    84
 Defaulting to unpruned grid for atomic number  80.
 ExpMin= 5.64D-02 ExpMax= 9.18D+03 ExpMxC= 1.38D+03 IAcc=3 IRadAn=         5 AccDes= 0.00D+00
 Harris functional with IExCor= 3731 and IRadAn=       5 diagonalized for initial guess.
 HarFok:  IExCor= 3731 AccDes= 0.00D+00 IRadAn=         5 IDoV= 1 UseB2=F ITyADJ=14
 ICtDFT=  3500011 ScaDFX=  1.000000  1.000000  1.000000  1.000000
 Defaulting to unpruned grid for atomic number  80.
 FoFCou: FMM=F IPFlag=           0 FMFlag=      100000 FMFlg1=           0
         NFxFlg=           0 DoJE=T BraDBF=F KetDBF=T FulRan=T
         wScrn=  0.000000 ICntrl=       500 IOpCl=  0 I1Cent=   200000004 NGrid=           0
         NMat0=    1 NMatS0=      1 NMatT0=    0 NMatD0=    1 NMtDS0=    0 NMtDT0=    0
 Petite list used in FoFCou.
 Keep R1 ints in memory in canonical form, NReq=28287246.
 Requested convergence on RMS density matrix=1.00D-08 within 128 cycles.
 Requested convergence on MAX density matrix=1.00D-06.
 Requested convergence on             energy=1.00D-06.
 No special actions if energy rises.
 Integral accuracy reduced to 1.0D-05 until final iterations.
 Defaulting to unpruned grid for atomic number  80.
 Defaulting to unpruned grid for atomic number  80.
 Defaulting to unpruned grid for atomic number  80.
 Defaulting to unpruned grid for atomic number  80.
 Defaulting to unpruned grid for atomic number  80.
 Defaulting to unpruned grid for atomic number  80.
 Defaulting to unpruned grid for atomic number  80.
 Defaulting to unpruned grid for atomic number  80.
 Defaulting to unpruned grid for atomic number  80.
 Defaulting to unpruned grid for atomic number  80.
 Defaulting to unpruned grid for atomic number  80.
 Defaulting to unpruned grid for atomic number  80.
 Defaulting to unpruned grid for atomic number  80.
 Defaulting to unpruned grid for atomic number  80.
 Defaulting to unpruned grid for atomic number  80.
 Defaulting to unpruned grid for atomic number  80.
 Defaulting to unpruned grid for atomic number  80.
 Defaulting to unpruned grid for atomic number  80.
 Defaulting to unpruned grid for atomic number  80.
 Defaulting to unpruned grid for atomic number  80.
 Defaulting to unpruned grid for atomic number  80.
 Defaulting to unpruned grid for atomic number  80.
 Defaulting to unpruned grid for atomic number  80.
 Defaulting to unpruned grid for atomic number  80.
 EnCoef did   100 forward-backward iterations
 Initial convergence to 1.0D-05 achieved.  Increase integral accuracy.
 SCF Done:  E(RAPFD) =  -591.971161199     A.U. after   15 cycles
            NFock= 15  Conv=0.56D-08     -V/T= 2.2133

 **********************************************************************

            Population analysis using the SCF density.

 **********************************************************************

 Orbital symmetries:
       Occupied  (A) (A) (A) (A) (A) (A) (A) (A) (A) (A) (A) (A)
                 (A) (A) (A) (A) (A) (A) (A) (A) (A) (A) (A)
       Virtual   (A) (A) (A) (A) (A) (A) (A) (A) (A) (A) (A) (A)
                 (A) (A) (A) (A) (A) (A) (A) (A) (A) (A) (A) (A)
                 (A) (A) (A) (A) (A) (A) (A) (A) (A) (A) (A) (A)
                 (A) (A) (A) (A) (A) (A) (A) (A) (A) (A) (A) (A)
                 (A) (A) (A) (A) (A) (A) (A) (A) (A) (A) (A) (A)
                 (A)
 The electronic state is 1-A.
 Alpha  occ. eigenvalues --  -88.90752 -10.22164  -7.95392  -5.90519  -5.90232
 Alpha  occ. eigenvalues --   -5.89661  -4.52121  -2.65358  -2.64928  -2.64782
 Alpha  occ. eigenvalues --   -0.71082  -0.69495  -0.50445  -0.49498  -0.49347
 Alpha  occ. eigenvalues --   -0.47829  -0.47826  -0.41159  -0.41001  -0.38352
 Alpha  occ. eigenvalues --   -0.34513  -0.27322  -0.23933
 Alpha virt. eigenvalues --   -0.02378  -0.01117   0.00143   0.05947   0.07995
 Alpha virt. eigenvalues --    0.14193   0.14223   0.17115   0.21562   0.35686
 Alpha virt. eigenvalues --    0.41138   0.42961   0.45670   0.45769   0.48218
 Alpha virt. eigenvalues --    0.52809   0.53919   0.54834   0.56396   0.66411
 Alpha virt. eigenvalues --    0.67613   0.68238   0.68372   0.73733   0.74078
 Alpha virt. eigenvalues --    0.79534   0.81698   0.82140   0.84339   0.85229
 Alpha virt. eigenvalues --    0.86921   1.01132   1.06128   1.21548   1.24254
 Alpha virt. eigenvalues --    1.24977   1.52665   1.53818   1.54526   1.55156
 Alpha virt. eigenvalues --    1.55220   1.55279   1.55287   1.55383   1.58278
 Alpha virt. eigenvalues --    1.60840   1.77760   1.77767   1.91402   1.98265
 Alpha virt. eigenvalues --    1.98324   2.19797   2.21513   2.33698   2.44174
 Alpha virt. eigenvalues --    2.44189   2.74651   2.92982   2.93018  33.29846
 Alpha virt. eigenvalues --  121.54732
          Condensed to atoms (all electrons):
               1          2          3          4          5          6
     1  C    5.025557   0.256230   0.375610   0.376758   0.373059  -0.008879
     2  Hg   0.256230  19.179367  -0.026636  -0.025852  -0.023728   0.258086
     3  H    0.375610  -0.026636   0.591190  -0.014271  -0.012925   0.000190
     4  H    0.376758  -0.025852  -0.014271   0.588998  -0.011995   0.000206
     5  H    0.373059  -0.023728  -0.012925  -0.011995   0.588405   0.000230
     6  S   -0.008879   0.258086   0.000190   0.000206   0.000230  15.796361
     7  H    0.000259  -0.005064  -0.000011  -0.000026   0.000002   0.286659
               7
     1  C    0.000259
     2  Hg  -0.005064
     3  H   -0.000011
     4  H   -0.000026
     5  H    0.000002
     6  S    0.286659
     7  H    0.634318
 Mulliken charges:
               1
     1  C   -0.398593
     2  Hg   0.387597
     3  H    0.086853
     4  H    0.086182
     5  H    0.086952
     6  S   -0.332853
     7  H    0.083863
 Sum of Mulliken charges =  -0.00000
 Mulliken charges with hydrogens summed into heavy atoms:
               1
     1  C   -0.138606
     2  Hg   0.387597
     6  S   -0.248990
 Electronic spatial extent (au):  <R**2>=            631.7455
 Charge=             -0.0000 electrons
 Dipole moment (field-independent basis, Debye):
    X=              2.5040    Y=              0.9065    Z=             -0.0001  Tot=              2.6630
 Quadrupole moment (field-independent basis, Debye-Ang):
   XX=            -49.8799   YY=            -41.9915   ZZ=            -45.4232
   XY=             -2.9349   XZ=             -0.0047   YZ=              0.0007
 Traceless Quadrupole moment (field-independent basis, Debye-Ang):
   XX=             -4.1150   YY=              3.7733   ZZ=              0.3416
   XY=             -2.9349   XZ=             -0.0047   YZ=              0.0007
 Octapole moment (field-independent basis, Debye-Ang**2):
  XXX=             34.6251  YYY=              0.9465  ZZZ=              0.5369  XYY=              5.8835
  XXY=              8.2592  XXZ=             -0.0153  XZZ=             12.9661  YZZ=              0.5154
  YYZ=             -0.5140  XYZ=              0.0034
 Hexadecapole moment (field-independent basis, Debye-Ang**3):
 XXXX=           -790.3967 YYYY=            -58.4169 ZZZZ=            -59.7896 XXXY=            -23.9438
 XXXZ=             -0.0614 YYYX=             -6.1018 YYYZ=             -0.0216 ZZZX=              1.5030
 ZZZY=              0.0062 XXYY=           -126.6603 XXZZ=           -142.4751 YYZZ=            -20.2114
 XXYZ=              0.0147 YYXZ=             -1.4953 ZZXY=              0.0838
 N-N= 1.466268479783D+02 E-N=-1.653190401982D+03  KE= 4.878954842077D+02
 R6APFD:  NTU= -4 IXU= 1 FactS= 1.050
 PrsmSu:  requested number of processors reduced to:  13 ShMem   1 Linda.
   1 Symmetry operations used in ECPInt.
 ECPInt:  NShTT=     741 NPrTT=    2476 LenC2=     732 LenP2D=    2078.
 LDataN:  DoStor=T MaxTD1= 9 Len=  602
 Calling FoFJK, ICntrl=      2127 FMM=F ISym2X=0 I1Cent= 0 IOpClX= 0 NMat=1 NMatS=1 NMatT=0.
 Defaulting to unpruned grid for atomic number  80.
 Defaulting to unpruned grid for atomic number  80.
 Defaulting to unpruned grid for atomic number  80.
 Defaulting to unpruned grid for atomic number  80.
 Defaulting to unpruned grid for atomic number  80.
 Defaulting to unpruned grid for atomic number  80.
 Defaulting to unpruned grid for atomic number  80.
 Defaulting to unpruned grid for atomic number  80.
 Defaulting to unpruned grid for atomic number  80.
 Defaulting to unpruned grid for atomic number  80.
 Defaulting to unpruned grid for atomic number  80.
 Defaulting to unpruned grid for atomic number  80.
 Defaulting to unpruned grid for atomic number  80.
 Defaulting to unpruned grid for atomic number  80.
 Defaulting to unpruned grid for atomic number  80.
 Defaulting to unpruned grid for atomic number  80.
 Defaulting to unpruned grid for atomic number  80.
 Defaulting to unpruned grid for atomic number  80.
 Defaulting to unpruned grid for atomic number  80.
 Defaulting to unpruned grid for atomic number  80.
 Defaulting to unpruned grid for atomic number  80.
 Defaulting to unpruned grid for atomic number  80.
 Defaulting to unpruned grid for atomic number  80.
 Defaulting to unpruned grid for atomic number  80.
 ***** Axes restored to original set *****
 -------------------------------------------------------------------
 Center     Atomic                   Forces (Hartrees/Bohr)
 Number     Number              X              Y              Z
 -------------------------------------------------------------------
      1        6           0.022204122    0.003220321    0.000136285
      2       80           0.009341842   -0.001577679   -0.000048788
      3        1          -0.001378817   -0.002074091    0.010039376
      4        1          -0.000539736   -0.007739848   -0.006810318
      5        1          -0.002939377    0.009274700   -0.003327186
      6       16          -0.021660541   -0.002158794    0.000013592
      7        1          -0.005027493    0.001055391   -0.000002961
 -------------------------------------------------------------------
 Cartesian Forces:  Max     0.022204122 RMS     0.008201922

 GradGradGradGradGradGradGradGradGradGradGradGradGradGradGradGradGradGrad
 Berny optimization.
 FormGI is forming the generalized inverse of G from B-inverse, IUseBI=4.
 Internal  Forces:  Max     0.026560694 RMS     0.009079432
 Search for a local minimum.
 Step number   1 out of a maximum of   28
 All quantities printed in internal units (Hartrees-Bohrs-Radians)
 Mixed Optimization -- RFO/linear search
 Second derivative matrix not updated -- first step.
 The second derivative matrix:
                          R1        R2        R3        R4        R5
           R1           0.13431
           R2           0.00000   0.35606
           R3           0.00000   0.00000   0.35588
           R4           0.00000   0.00000   0.00000   0.35578
           R5           0.00000   0.00000   0.00000   0.00000   0.13878
           R6           0.00000   0.00000   0.00000   0.00000   0.00000
           A1           0.00000   0.00000   0.00000   0.00000   0.00000
           A2           0.00000   0.00000   0.00000   0.00000   0.00000
           A3           0.00000   0.00000   0.00000   0.00000   0.00000
           A4           0.00000   0.00000   0.00000   0.00000   0.00000
           A5           0.00000   0.00000   0.00000   0.00000   0.00000
           A6           0.00000   0.00000   0.00000   0.00000   0.00000
           A7           0.00000   0.00000   0.00000   0.00000   0.00000
           A8           0.00000   0.00000   0.00000   0.00000   0.00000
           A9           0.00000   0.00000   0.00000   0.00000   0.00000
           D1           0.00000   0.00000   0.00000   0.00000   0.00000
           D2           0.00000   0.00000   0.00000   0.00000   0.00000
           D3           0.00000   0.00000   0.00000   0.00000   0.00000
                          R6        A1        A2        A3        A4
           R6           0.25161
           A1           0.00000   0.16000
           A2           0.00000   0.00000   0.16000
           A3           0.00000   0.00000   0.00000   0.16000
           A4           0.00000   0.00000   0.00000   0.00000   0.16000
           A5           0.00000   0.00000   0.00000   0.00000   0.00000
           A6           0.00000   0.00000   0.00000   0.00000   0.00000
           A7           0.00000   0.00000   0.00000   0.00000   0.00000
           A8           0.00000   0.00000   0.00000   0.00000   0.00000
           A9           0.00000   0.00000   0.00000   0.00000   0.00000
           D1           0.00000   0.00000   0.00000   0.00000   0.00000
           D2           0.00000   0.00000   0.00000   0.00000   0.00000
           D3           0.00000   0.00000   0.00000   0.00000   0.00000
                          A5        A6        A7        A8        A9
           A5           0.16000
           A6           0.00000   0.16000
           A7           0.00000   0.00000   0.16000
           A8           0.00000   0.00000   0.00000   0.00230
           A9           0.00000   0.00000   0.00000   0.00000   0.00230
           D1           0.00000   0.00000   0.00000   0.00000   0.00000
           D2           0.00000   0.00000   0.00000   0.00000   0.00000
           D3           0.00000   0.00000   0.00000   0.00000   0.00000
                          D1        D2        D3
           D1           0.00230
           D2           0.00000   0.00230
           D3           0.00000   0.00000   0.00230
 ITU=  0
     Eigenvalues ---    0.00230   0.00230   0.00230   0.10013   0.10129
     Eigenvalues ---    0.13431   0.13878   0.16000   0.16000   0.16000
     Eigenvalues ---    0.16000   0.25161   0.35578   0.35588   0.35606
 RFO step:  Lambda=-8.94028849D-03 EMin= 2.30000000D-03
 Linear search not attempted -- first point.
 Iteration  1 RMS(Cart)=  0.11728941 RMS(Int)=  0.00462275
 Iteration  2 RMS(Cart)=  0.00668587 RMS(Int)=  0.00032576
 Iteration  3 RMS(Cart)=  0.00001039 RMS(Int)=  0.00032570
 Iteration  4 RMS(Cart)=  0.00000000 RMS(Int)=  0.00032570
 Variable       Old X    -DE/DX   Delta X   Delta X   Delta X     New X
                                 (Linear)    (Quad)   (Total)
    R1        4.06490  -0.01754   0.00000  -0.12247  -0.12247   3.94244
    R2        2.04703   0.01017   0.00000   0.02787   0.02787   2.07490
    R3        2.04731   0.01013   0.00000   0.02777   0.02777   2.07508
    R4        2.04747   0.01015   0.00000   0.02782   0.02782   2.07529
    R5        4.63896  -0.02656   0.00000  -0.17981  -0.17981   4.45916
    R6        2.56300  -0.00255   0.00000  -0.00978  -0.00978   2.55322
    A1        1.90993  -0.00192   0.00000  -0.01134  -0.01167   1.89826
    A2        1.90857  -0.00220   0.00000  -0.01330  -0.01320   1.89537
    A3        1.90754  -0.00155   0.00000  -0.00895  -0.00893   1.89862
    A4        1.91342   0.00192   0.00000   0.01087   0.01066   1.92407
    A5        1.91271   0.00192   0.00000   0.01189   0.01138   1.92409
    A6        1.91162   0.00182   0.00000   0.01069   0.01121   1.92283
    A7        1.73573  -0.01143   0.00000  -0.06766  -0.06766   1.66807
    A8        3.16606   0.00165   0.00000   0.14331   0.14330   3.30936
    A9        3.14126   0.00003   0.00000   0.00177   0.00184   3.14310
    D1        1.38294   0.00015   0.00000   0.02555   0.02530   1.40824
    D2       -0.72078  -0.00014   0.00000  -0.01723  -0.01782  -0.73861
    D3       -2.81158   0.00001   0.00000  -0.00721  -0.00632  -2.81791
         Item               Value     Threshold  Converged?
 Maximum Force            0.026561     0.000450     NO 
 RMS     Force            0.009079     0.000300     NO 
 Maximum Displacement     0.262002     0.001800     NO 
 RMS     Displacement     0.120243     0.001200     NO 
 Predicted change in Energy=-4.812706D-03
 GradGradGradGradGradGradGradGradGradGradGradGradGradGradGradGradGradGrad

                          Input orientation:                          
 ---------------------------------------------------------------------
 Center     Atomic      Atomic             Coordinates (Angstroms)
 Number     Number       Type             X           Y           Z
 ---------------------------------------------------------------------
      1          6           0       -9.307275    1.348421    0.000311
      2         80           0       -7.224921    1.475840   -0.000015
      3          1           0       -9.647341    1.126303    1.020409
      4          1           0       -9.609034    0.544596   -0.684231
      5          1           0       -9.720325    2.308324   -0.337352
      6         16           0       -4.926778    2.011234    0.001317
      7          1           0       -4.493876    0.731360   -0.000447
 ---------------------------------------------------------------------
                    Distance matrix (angstroms):
                    1          2          3          4          5
     1  C    0.000000
     2  Hg   2.086248   0.000000
     3  H    1.097990   2.651709   0.000000
     4  H    1.098085   2.649408   1.801568   0.000000
     5  H    1.098199   2.652143   1.801670   1.800957   0.000000
     6  S    4.430358   2.359684   4.909722   4.954243   4.814670
     7  H    4.852790   2.830699   5.268427   5.164037   5.469560
                    6          7
     6  S    0.000000
     7  H    1.351105   0.000000
 Stoichiometry    CH4HgS
 Framework group  C1[X(CH4HgS)]
 Deg. of freedom    15
 Full point group                 C1      NOp   1
 Largest Abelian subgroup         C1      NOp   1
 Largest concise Abelian subgroup C1      NOp   1
                         Standard orientation:                         
 ---------------------------------------------------------------------
 Center     Atomic      Atomic             Coordinates (Angstroms)
 Number     Number       Type             X           Y           Z
 ---------------------------------------------------------------------
      1          6           0        2.271591   -0.144415    0.000575
      2         80           0        0.193025    0.034456   -0.000082
      3          1           0        2.640196    0.023686    1.021092
      4          1           0        2.688015    0.607785   -0.682489
      5          1           0        2.539737   -1.153847   -0.338812
      6         16           0       -2.158744   -0.158654    0.000166
      7          1           0       -2.399570    1.170815    0.000708
 ---------------------------------------------------------------------
 Rotational constants (GHZ):          84.9594745           2.0482676           2.0262861
 Standard basis: def2SVP (5D, 7F)
 There are    91 symmetry adapted cartesian basis functions of A   symmetry.
 There are    84 symmetry adapted basis functions of A   symmetry.
    84 basis functions,   155 primitive gaussians,    91 cartesian basis functions
    23 alpha electrons       23 beta electrons
       nuclear repulsion energy       151.3505364384 Hartrees.
 NAtoms=    7 NActive=    7 NUniq=    7 SFac= 1.00D+00 NAtFMM=   60 NAOKFM=F Big=F
 Integral buffers will be    131072 words long.
 Raffenetti 2 integral format.
 Two-electron integral symmetry is turned on.
 R6APFD:  NTU= -4 IXU= 1 FactS= 1.050
 Nuclear repulsion after empirical dispersion term =      151.3268509730 Hartrees.
 One-electron integrals computed using PRISM.
 PrsmSu:  requested number of processors reduced to:  13 ShMem   1 Linda.
   1 Symmetry operations used in ECPInt.
 ECPInt:  NShTT=     741 NPrTT=    2476 LenC2=     734 LenP2D=    2094.
 LDataN:  DoStor=T MaxTD1= 8 Len=  415
 NBasis=    84 RedAO= T EigKep=  8.42D-03  NBF=    84
 NBsUse=    84 1.00D-06 EigRej= -1.00D+00 NBFU=    84
 Defaulting to unpruned grid for atomic number  80.
 Initial guess from the checkpoint file:  "ch3hgSH_gas_apfd_def2svp.chk"
 B after Tr=     0.000000   -0.000000    0.000000
         Rot=    0.999999   -0.000259    0.000003    0.001053 Ang=  -0.12 deg.
 ExpMin= 5.64D-02 ExpMax= 9.18D+03 ExpMxC= 1.38D+03 IAcc=2 IRadAn=         4 AccDes= 0.00D+00
 Harris functional with IExCor= 3731 and IRadAn=       4 diagonalized for initial guess.
 HarFok:  IExCor= 3731 AccDes= 0.00D+00 IRadAn=         4 IDoV= 1 UseB2=F ITyADJ=14
 ICtDFT=  3500011 ScaDFX=  1.000000  1.000000  1.000000  1.000000
 Defaulting to unpruned grid for atomic number  80.
 FoFCou: FMM=F IPFlag=           0 FMFlag=      100000 FMFlg1=           0
         NFxFlg=           0 DoJE=T BraDBF=F KetDBF=T FulRan=T
         wScrn=  0.000000 ICntrl=       500 IOpCl=  0 I1Cent=   200000004 NGrid=           0
         NMat0=    1 NMatS0=      1 NMatT0=    0 NMatD0=    1 NMtDS0=    0 NMtDT0=    0
 Petite list used in FoFCou.
 Keep R1 ints in memory in canonical form, NReq=28287246.
 Requested convergence on RMS density matrix=1.00D-08 within 128 cycles.
 Requested convergence on MAX density matrix=1.00D-06.
 Requested convergence on             energy=1.00D-06.
 No special actions if energy rises.
 Integral accuracy reduced to 1.0D-05 until final iterations.
 Defaulting to unpruned grid for atomic number  80.
 Defaulting to unpruned grid for atomic number  80.
 Defaulting to unpruned grid for atomic number  80.
 Defaulting to unpruned grid for atomic number  80.
 Defaulting to unpruned grid for atomic number  80.
 Defaulting to unpruned grid for atomic number  80.
 Defaulting to unpruned grid for atomic number  80.
 Defaulting to unpruned grid for atomic number  80.
 Defaulting to unpruned grid for atomic number  80.
 Defaulting to unpruned grid for atomic number  80.
 Defaulting to unpruned grid for atomic number  80.
 Defaulting to unpruned grid for atomic number  80.
 Defaulting to unpruned grid for atomic number  80.
 Defaulting to unpruned grid for atomic number  80.
 Defaulting to unpruned grid for atomic number  80.
 Defaulting to unpruned grid for atomic number  80.
 Defaulting to unpruned grid for atomic number  80.
 Defaulting to unpruned grid for atomic number  80.
 Defaulting to unpruned grid for atomic number  80.
 Defaulting to unpruned grid for atomic number  80.
 Defaulting to unpruned grid for atomic number  80.
 Defaulting to unpruned grid for atomic number  80.
 Defaulting to unpruned grid for atomic number  80.
 Defaulting to unpruned grid for atomic number  80.
 Initial convergence to 1.0D-05 achieved.  Increase integral accuracy.
 SCF Done:  E(RAPFD) =  -591.975057881     A.U. after   12 cycles
            NFock= 12  Conv=0.94D-08     -V/T= 2.2132
 R6APFD:  NTU= -4 IXU= 1 FactS= 1.050
 PrsmSu:  requested number of processors reduced to:  13 ShMem   1 Linda.
   1 Symmetry operations used in ECPInt.
 ECPInt:  NShTT=     741 NPrTT=    2476 LenC2=     734 LenP2D=    2094.
 LDataN:  DoStor=T MaxTD1= 9 Len=  602
 Calling FoFJK, ICntrl=      2127 FMM=F ISym2X=0 I1Cent= 0 IOpClX= 0 NMat=1 NMatS=1 NMatT=0.
 Defaulting to unpruned grid for atomic number  80.
 Defaulting to unpruned grid for atomic number  80.
 Defaulting to unpruned grid for atomic number  80.
 Defaulting to unpruned grid for atomic number  80.
 Defaulting to unpruned grid for atomic number  80.
 Defaulting to unpruned grid for atomic number  80.
 Defaulting to unpruned grid for atomic number  80.
 Defaulting to unpruned grid for atomic number  80.
 Defaulting to unpruned grid for atomic number  80.
 Defaulting to unpruned grid for atomic number  80.
 Defaulting to unpruned grid for atomic number  80.
 Defaulting to unpruned grid for atomic number  80.
 Defaulting to unpruned grid for atomic number  80.
 Defaulting to unpruned grid for atomic number  80.
 Defaulting to unpruned grid for atomic number  80.
 Defaulting to unpruned grid for atomic number  80.
 Defaulting to unpruned grid for atomic number  80.
 Defaulting to unpruned grid for atomic number  80.
 Defaulting to unpruned grid for atomic number  80.
 Defaulting to unpruned grid for atomic number  80.
 Defaulting to unpruned grid for atomic number  80.
 Defaulting to unpruned grid for atomic number  80.
 Defaulting to unpruned grid for atomic number  80.
 Defaulting to unpruned grid for atomic number  80.
 ***** Axes restored to original set *****
 -------------------------------------------------------------------
 Center     Atomic                   Forces (Hartrees/Bohr)
 Number     Number              X              Y              Z
 -------------------------------------------------------------------
      1        6           0.000301350   -0.005831560    0.000226656
      2       80           0.008423833    0.010438668   -0.000026865
      3        1          -0.001493722   -0.000010965   -0.000628641
      4        1          -0.002354596    0.000535795    0.000520144
      5        1           0.000247784   -0.000122671   -0.000083566
      6       16          -0.005534498   -0.004837619    0.000009509
      7        1           0.000409850   -0.000171647   -0.000017236
 -------------------------------------------------------------------
 Cartesian Forces:  Max     0.010438668 RMS     0.003632653

 GradGradGradGradGradGradGradGradGradGradGradGradGradGradGradGradGradGrad
 Berny optimization.
 Using GEDIIS/GDIIS optimizer.
 FormGI is forming the generalized inverse of G from B-inverse, IUseBI=4.
 Internal  Forces:  Max     0.015401831 RMS     0.004233582
 Search for a local minimum.
 Step number   2 out of a maximum of   28
 All quantities printed in internal units (Hartrees-Bohrs-Radians)
 Mixed Optimization -- RFO/linear search
 Update second derivatives using D2CorX and points    1    2
 DE= -3.90D-03 DEPred=-4.81D-03 R= 8.10D-01
 TightC=F SS=  1.41D+00  RLast= 2.77D-01 DXNew= 5.0454D-01 8.3041D-01
 Trust test= 8.10D-01 RLast= 2.77D-01 DXMaxT set to 5.05D-01
 The second derivative matrix:
                          R1        R2        R3        R4        R5
           R1           0.14336
           R2          -0.00056   0.35402
           R3          -0.00046  -0.00208   0.35376
           R4          -0.00067  -0.00198  -0.00202   0.35386
           R5          -0.00933   0.01035   0.01041   0.01022   0.10236
           R6           0.00071   0.00023   0.00024   0.00021  -0.00202
           A1           0.00456  -0.00178  -0.00176  -0.00180   0.00235
           A2           0.00813  -0.00346  -0.00342  -0.00349   0.00554
           A3          -0.00388   0.00222   0.00221   0.00222  -0.00532
           A4          -0.00166   0.00041   0.00040   0.00042   0.00027
           A5          -0.00369   0.00137   0.00135   0.00139  -0.00157
           A6          -0.00334   0.00121   0.00119   0.00122  -0.00126
           A7           0.00270   0.00121   0.00126   0.00114  -0.00928
           A8          -0.03304   0.01599   0.01585   0.01604  -0.03155
           A9          -0.00008   0.00004   0.00004   0.00004  -0.00008
           D1          -0.00221   0.00106   0.00105   0.00106  -0.00207
           D2           0.00165  -0.00079  -0.00078  -0.00079   0.00155
           D3           0.00062  -0.00030  -0.00030  -0.00030   0.00059
                          R6        A1        A2        A3        A4
           R6           0.25163
           A1           0.00056   0.16122
           A2           0.00103   0.00197   0.16310
           A3          -0.00057  -0.00053  -0.00067   0.15978
           A4          -0.00017  -0.00062  -0.00106   0.00042   0.16026
           A5          -0.00044  -0.00104  -0.00169   0.00050   0.00051
           A6          -0.00039  -0.00096  -0.00158   0.00048   0.00047
           A7           0.00003   0.00236   0.00439  -0.00247  -0.00070
           A8          -0.00443  -0.00660  -0.00986   0.00089   0.00401
           A9          -0.00001  -0.00002  -0.00003   0.00000   0.00001
           D1          -0.00029  -0.00045  -0.00067   0.00007   0.00027
           D2           0.00022   0.00033   0.00050  -0.00005  -0.00020
           D3           0.00008   0.00013   0.00019  -0.00002  -0.00008
                          A5        A6        A7        A8        A9
           A5           0.16088
           A6           0.00082   0.16075
           A7          -0.00186  -0.00166   0.15989
           A8           0.00583   0.00550  -0.01912   0.02943
           A9           0.00002   0.00001  -0.00005   0.00007   0.00230
           D1           0.00039   0.00037  -0.00127   0.00187   0.00001
           D2          -0.00029  -0.00028   0.00095  -0.00139  -0.00000
           D3          -0.00011  -0.00010   0.00036  -0.00052  -0.00000
                          D1        D2        D3
           D1           0.00243
           D2          -0.00010   0.00237
           D3          -0.00004   0.00003   0.00231
 ITU=  1  0
 Use linear search instead of GDIIS.
     Eigenvalues ---    0.00230   0.00230   0.00314   0.09564   0.10345
     Eigenvalues ---    0.11577   0.14467   0.15884   0.16000   0.16000
     Eigenvalues ---    0.17929   0.25179   0.35366   0.35582   0.35599
 RFO step:  Lambda=-1.33098112D-02 EMin= 2.29995830D-03
 Quartic linear search produced a step of -0.14333.
 Maximum step size (   0.505) exceeded in Quadratic search.
    -- Step size scaled by   0.581
 Iteration  1 RMS(Cart)=  0.17578162 RMS(Int)=  0.06160419
 Iteration  2 RMS(Cart)=  0.13178330 RMS(Int)=  0.01514090
 Iteration  3 RMS(Cart)=  0.03897815 RMS(Int)=  0.00423425
 Iteration  4 RMS(Cart)=  0.00067819 RMS(Int)=  0.00420419
 Iteration  5 RMS(Cart)=  0.00000236 RMS(Int)=  0.00420419
 Iteration  6 RMS(Cart)=  0.00000003 RMS(Int)=  0.00420419
 Variable       Old X    -DE/DX   Delta X   Delta X   Delta X     New X
                                 (Linear)    (Quad)   (Total)
    R1        3.94244   0.00362   0.01755  -0.10522  -0.08771   3.85472
    R2        2.07490  -0.00012  -0.00399   0.02793   0.02394   2.09884
    R3        2.07508  -0.00007  -0.00398   0.02790   0.02392   2.09900
    R4        2.07529  -0.00017  -0.00399   0.02780   0.02382   2.09911
    R5        4.45916  -0.00612   0.02577  -0.19391  -0.16810   4.29105
    R6        2.55322   0.00029   0.00140  -0.00918  -0.00777   2.54545
    A1        1.89826   0.00227   0.00167  -0.00377  -0.00490   1.89336
    A2        1.89537   0.00404   0.00189   0.00024   0.00324   1.89861
    A3        1.89862  -0.00208   0.00128  -0.01665  -0.01277   1.88584
    A4        1.92407  -0.00064  -0.00153   0.01170   0.00315   1.92723
    A5        1.92409  -0.00179  -0.00163   0.00343   0.00117   1.92526
    A6        1.92283  -0.00168  -0.00161   0.00448   0.00960   1.93243
    A7        1.66807   0.00085   0.00970  -0.06332  -0.05362   1.61445
    A8        3.30936  -0.01540  -0.02054  -0.44598  -0.46766   2.84171
    A9        3.14310  -0.00002  -0.00026  -0.00144  -0.00001   3.14309
    D1        1.40824  -0.00103  -0.00363  -0.07741  -0.07562   1.33262
    D2       -0.73861   0.00073   0.00255   0.06043   0.05112  -0.68748
    D3       -2.81791   0.00034   0.00091   0.01805   0.02472  -2.79319
         Item               Value     Threshold  Converged?
 Maximum Force            0.015402     0.000450     NO 
 RMS     Force            0.004234     0.000300     NO 
 Maximum Displacement     0.873642     0.001800     NO 
 RMS     Displacement     0.342477     0.001200     NO 
 Predicted change in Energy=-7.423240D-03
 GradGradGradGradGradGradGradGradGradGradGradGradGradGradGradGradGradGrad

                          Input orientation:                          
 ---------------------------------------------------------------------
 Center     Atomic      Atomic             Coordinates (Angstroms)
 Number     Number       Type             X           Y           Z
 ---------------------------------------------------------------------
      1          6           0       -9.195419    1.353403   -0.001574
      2         80           0       -7.241198    1.938152   -0.000541
      3          1           0       -9.475944    1.060920    1.032505
      4          1           0       -9.310483    0.491608   -0.692816
      5          1           0       -9.811848    2.213404   -0.339646
      6         16           0       -4.970566    1.917390    0.002107
      7          1           0       -4.924093    0.571202   -0.000043
 ---------------------------------------------------------------------
                    Distance matrix (angstroms):
                    1          2          3          4          5
     1  C    0.000000
     2  Hg   2.039832   0.000000
     3  H    1.110657   2.613582   0.000000
     4  H    1.110742   2.617952   1.824343   0.000000
     5  H    1.110801   2.607488   1.823143   1.827753   0.000000
     6  S    4.262333   2.270728   4.700393   4.620676   4.862348
     7  H    4.342358   2.690265   4.693115   4.441473   5.167427
                    6          7
     6  S    0.000000
     7  H    1.346992   0.000000
 Stoichiometry    CH4HgS
 Framework group  C1[X(CH4HgS)]
 Deg. of freedom    15
 Full point group                 C1      NOp   1
 Largest Abelian subgroup         C1      NOp   1
 Largest concise Abelian subgroup C1      NOp   1
                         Standard orientation:                         
 ---------------------------------------------------------------------
 Center     Atomic      Atomic             Coordinates (Angstroms)
 Number     Number       Type             X           Y           Z
 ---------------------------------------------------------------------
      1          6           0        2.175257    0.358819    0.000303
      2         80           0        0.183637   -0.082047   -0.000202
      3          1           0        2.475507    0.630248    1.034583
      4          1           0        2.353338    1.209841   -0.690924
      5          1           0        2.727684   -0.543845   -0.337190
      6         16           0       -2.079454    0.104035    0.000597
      7          1           0       -2.027756    1.450032   -0.001714
 ---------------------------------------------------------------------
 Rotational constants (GHZ):          55.7568893           2.2273365           2.1726132
 Standard basis: def2SVP (5D, 7F)
 There are    91 symmetry adapted cartesian basis functions of A   symmetry.
 There are    84 symmetry adapted basis functions of A   symmetry.
    84 basis functions,   155 primitive gaussians,    91 cartesian basis functions
    23 alpha electrons       23 beta electrons
       nuclear repulsion energy       155.8796604818 Hartrees.
 NAtoms=    7 NActive=    7 NUniq=    7 SFac= 1.00D+00 NAtFMM=   60 NAOKFM=F Big=F
 Integral buffers will be    131072 words long.
 Raffenetti 2 integral format.
 Two-electron integral symmetry is turned on.
 R6APFD:  NTU= -4 IXU= 1 FactS= 1.050
 Nuclear repulsion after empirical dispersion term =      155.8545646764 Hartrees.
 One-electron integrals computed using PRISM.
 PrsmSu:  requested number of processors reduced to:  13 ShMem   1 Linda.
   1 Symmetry operations used in ECPInt.
 ECPInt:  NShTT=     741 NPrTT=    2476 LenC2=     734 LenP2D=    2109.
 LDataN:  DoStor=T MaxTD1= 8 Len=  415
 NBasis=    84 RedAO= T EigKep=  8.22D-03  NBF=    84
 NBsUse=    84 1.00D-06 EigRej= -1.00D+00 NBFU=    84
 Defaulting to unpruned grid for atomic number  80.
 Initial guess from the checkpoint file:  "ch3hgSH_gas_apfd_def2svp.chk"
 B after Tr=     0.000000   -0.000000    0.000000
         Rot=    0.999998    0.002028    0.000021   -0.000831 Ang=   0.25 deg.
 ExpMin= 5.64D-02 ExpMax= 9.18D+03 ExpMxC= 1.38D+03 IAcc=2 IRadAn=         4 AccDes= 0.00D+00
 Harris functional with IExCor= 3731 and IRadAn=       4 diagonalized for initial guess.
 HarFok:  IExCor= 3731 AccDes= 0.00D+00 IRadAn=         4 IDoV= 1 UseB2=F ITyADJ=14
 ICtDFT=  3500011 ScaDFX=  1.000000  1.000000  1.000000  1.000000
 Defaulting to unpruned grid for atomic number  80.
 FoFCou: FMM=F IPFlag=           0 FMFlag=      100000 FMFlg1=           0
         NFxFlg=           0 DoJE=T BraDBF=F KetDBF=T FulRan=T
         wScrn=  0.000000 ICntrl=       500 IOpCl=  0 I1Cent=   200000004 NGrid=           0
         NMat0=    1 NMatS0=      1 NMatT0=    0 NMatD0=    1 NMtDS0=    0 NMtDT0=    0
 Petite list used in FoFCou.
 Keep R1 ints in memory in canonical form, NReq=28287246.
 Requested convergence on RMS density matrix=1.00D-08 within 128 cycles.
 Requested convergence on MAX density matrix=1.00D-06.
 Requested convergence on             energy=1.00D-06.
 No special actions if energy rises.
 Integral accuracy reduced to 1.0D-05 until final iterations.
 Defaulting to unpruned grid for atomic number  80.
 Defaulting to unpruned grid for atomic number  80.
 Defaulting to unpruned grid for atomic number  80.
 Defaulting to unpruned grid for atomic number  80.
 Defaulting to unpruned grid for atomic number  80.
 Defaulting to unpruned grid for atomic number  80.
 Defaulting to unpruned grid for atomic number  80.
 Defaulting to unpruned grid for atomic number  80.
 Defaulting to unpruned grid for atomic number  80.
 Defaulting to unpruned grid for atomic number  80.
 Defaulting to unpruned grid for atomic number  80.
 Defaulting to unpruned grid for atomic number  80.
 Defaulting to unpruned grid for atomic number  80.
 Defaulting to unpruned grid for atomic number  80.
 Defaulting to unpruned grid for atomic number  80.
 Defaulting to unpruned grid for atomic number  80.
 Defaulting to unpruned grid for atomic number  80.
 Defaulting to unpruned grid for atomic number  80.
 Defaulting to unpruned grid for atomic number  80.
 Defaulting to unpruned grid for atomic number  80.
 Defaulting to unpruned grid for atomic number  80.
 Defaulting to unpruned grid for atomic number  80.
 Defaulting to unpruned grid for atomic number  80.
 Defaulting to unpruned grid for atomic number  80.
 Initial convergence to 1.0D-05 achieved.  Increase integral accuracy.
 SCF Done:  E(RAPFD) =  -591.967795882     A.U. after   13 cycles
            NFock= 13  Conv=0.29D-08     -V/T= 2.2130
 R6APFD:  NTU= -4 IXU= 1 FactS= 1.050
 PrsmSu:  requested number of processors reduced to:  13 ShMem   1 Linda.
   1 Symmetry operations used in ECPInt.
 ECPInt:  NShTT=     741 NPrTT=    2476 LenC2=     734 LenP2D=    2109.
 LDataN:  DoStor=T MaxTD1= 9 Len=  602
 Calling FoFJK, ICntrl=      2127 FMM=F ISym2X=0 I1Cent= 0 IOpClX= 0 NMat=1 NMatS=1 NMatT=0.
 Defaulting to unpruned grid for atomic number  80.
 Defaulting to unpruned grid for atomic number  80.
 Defaulting to unpruned grid for atomic number  80.
 Defaulting to unpruned grid for atomic number  80.
 Defaulting to unpruned grid for atomic number  80.
 Defaulting to unpruned grid for atomic number  80.
 Defaulting to unpruned grid for atomic number  80.
 Defaulting to unpruned grid for atomic number  80.
 Defaulting to unpruned grid for atomic number  80.
 Defaulting to unpruned grid for atomic number  80.
 Defaulting to unpruned grid for atomic number  80.
 Defaulting to unpruned grid for atomic number  80.
 Defaulting to unpruned grid for atomic number  80.
 Defaulting to unpruned grid for atomic number  80.
 Defaulting to unpruned grid for atomic number  80.
 Defaulting to unpruned grid for atomic number  80.
 Defaulting to unpruned grid for atomic number  80.
 Defaulting to unpruned grid for atomic number  80.
 Defaulting to unpruned grid for atomic number  80.
 Defaulting to unpruned grid for atomic number  80.
 Defaulting to unpruned grid for atomic number  80.
 Defaulting to unpruned grid for atomic number  80.
 Defaulting to unpruned grid for atomic number  80.
 Defaulting to unpruned grid for atomic number  80.
 ***** Axes restored to original set *****
 -------------------------------------------------------------------
 Center     Atomic                   Forces (Hartrees/Bohr)
 Number     Number              X              Y              Z
 -------------------------------------------------------------------
      1        6          -0.025856049    0.005796431    0.000980529
      2       80           0.002855108   -0.013877403   -0.000202899
      3        1          -0.000458474    0.001911934   -0.008286399
      4        1           0.000130925    0.006948414    0.004730388
      5        1          -0.001192829   -0.010010682    0.002723935
      6       16           0.026081971    0.011760879    0.000040614
      7        1          -0.001560651   -0.002529574    0.000013832
 -------------------------------------------------------------------
 Cartesian Forces:  Max     0.026081971 RMS     0.009718796

 GradGradGradGradGradGradGradGradGradGradGradGradGradGradGradGradGradGrad
 Berny optimization.
 Using GEDIIS/GDIIS optimizer.
 FormGI is forming the generalized inverse of G from B-inverse, IUseBI=4.
 Internal  Forces:  Max     0.035922060 RMS     0.012717565
 Search for a local minimum.
 Step number   3 out of a maximum of   28
 All quantities printed in internal units (Hartrees-Bohrs-Radians)
 Mixed Optimization -- RFO/linear search
 Update second derivatives using D2CorX and points    1    3    2
 DE=  7.26D-03 DEPred=-7.42D-03 R=-9.78D-01
 Trust test=-9.78D-01 RLast= 5.18D-01 DXMaxT set to 2.52D-01
 The second derivative matrix:
                          R1        R2        R3        R4        R5
           R1           0.13940
           R2          -0.00187   0.35513
           R3          -0.00211  -0.00086   0.35508
           R4          -0.00169  -0.00096  -0.00089   0.35479
           R5           0.01132   0.00264   0.00241   0.00274   0.13165
           R6           0.00039   0.00007   0.00005   0.00009   0.00010
           A1          -0.00034  -0.00074  -0.00076  -0.00072   0.00284
           A2          -0.00852   0.00090   0.00091   0.00091  -0.00060
           A3           0.00858  -0.00189  -0.00199  -0.00182   0.00721
           A4           0.00107   0.00015   0.00020   0.00010  -0.00298
           A5           0.00302  -0.00004  -0.00000  -0.00008  -0.00233
           A6          -0.00350   0.00151   0.00153   0.00149  -0.00378
           A7          -0.00845   0.00420   0.00423   0.00415  -0.01399
           A8           0.01525   0.00003  -0.00048   0.00036   0.01741
           A9          -0.00006   0.00003   0.00004   0.00003  -0.00009
           D1           0.00128  -0.00002  -0.00004  -0.00000   0.00078
           D2          -0.00078  -0.00004  -0.00003  -0.00005  -0.00041
           D3          -0.00051   0.00006   0.00007   0.00005  -0.00040
                          R6        A1        A2        A3        A4
           R6           0.25161
           A1           0.00008   0.15974
           A2          -0.00062  -0.00162   0.15619
           A3           0.00070   0.00071  -0.00088   0.16442
           A4           0.00009   0.00075   0.00296  -0.00195   0.15926
           A5           0.00022   0.00100   0.00329  -0.00125  -0.00137
           A6          -0.00042  -0.00055   0.00003  -0.00091   0.00031
           A7          -0.00108   0.00006   0.00017  -0.00296   0.00194
           A8           0.00046  -0.00189  -0.01095   0.01913  -0.00516
           A9          -0.00001  -0.00001   0.00000  -0.00001   0.00000
           D1           0.00006   0.00002  -0.00028   0.00100  -0.00045
           D2          -0.00002   0.00001   0.00021  -0.00068   0.00030
           D3          -0.00003  -0.00001   0.00010  -0.00036   0.00015
                          A5        A6        A7        A8        A9
           A5           0.15806
           A6           0.00025   0.16083
           A7           0.00132  -0.00057   0.15734
           A8          -0.00085   0.00008  -0.02118   0.10102
           A9           0.00000   0.00001  -0.00003   0.00002   0.00230
           D1          -0.00026  -0.00000  -0.00111   0.00553   0.00000
           D2           0.00017  -0.00002   0.00082  -0.00388  -0.00000
           D3           0.00009   0.00002   0.00033  -0.00185   0.00000
                          D1        D2        D3
           D1           0.00259
           D2          -0.00020   0.00244
           D3          -0.00010   0.00007   0.00233
 ITU= -1  1  0
 Use linear search instead of GDIIS.
     Eigenvalues ---    0.00230   0.00230   0.07889   0.09735   0.11185
     Eigenvalues ---    0.12102   0.13549   0.15616   0.15928   0.16001
     Eigenvalues ---    0.19256   0.25164   0.35367   0.35584   0.35599
 RFO step:  Lambda=-9.75922356D-04 EMin= 2.29991528D-03
 Quartic linear search produced a step of -0.72341.
 Iteration  1 RMS(Cart)=  0.18929475 RMS(Int)=  0.02815931
 Iteration  2 RMS(Cart)=  0.07115741 RMS(Int)=  0.00284586
 Iteration  3 RMS(Cart)=  0.00422860 RMS(Int)=  0.00114551
 Iteration  4 RMS(Cart)=  0.00000033 RMS(Int)=  0.00114551
 Variable       Old X    -DE/DX   Delta X   Delta X   Delta X     New X
                                 (Linear)    (Quad)   (Total)
    R1        3.85472   0.02488   0.06345   0.06919   0.13264   3.98736
    R2        2.09884  -0.00810  -0.01732  -0.00592  -0.02324   2.07560
    R3        2.09900  -0.00835  -0.01730  -0.00601  -0.02331   2.07568
    R4        2.09911  -0.00792  -0.01723  -0.00591  -0.02314   2.07597
    R5        4.29105   0.02445   0.12161   0.01133   0.13293   4.42399
    R6        2.54545   0.00247   0.00562   0.00341   0.00903   2.55448
    A1        1.89336   0.00269   0.00355   0.01448   0.01897   1.91232
    A2        1.89861  -0.00256  -0.00235   0.01564   0.01266   1.91127
    A3        1.88584   0.01106   0.00924   0.00978   0.01831   1.90415
    A4        1.92723  -0.00395  -0.00228  -0.01283  -0.01410   1.91313
    A5        1.92526  -0.00247  -0.00085  -0.01325  -0.01322   1.91204
    A6        1.93243  -0.00429  -0.00695  -0.01228  -0.02156   1.91088
    A7        1.61445  -0.00419   0.03879  -0.00435   0.03444   1.64888
    A8        2.84171   0.03592   0.33831  -0.04004   0.29846   3.14016
    A9        3.14309  -0.00004   0.00001  -0.00863  -0.00902   3.13407
    D1        1.33262   0.00197   0.05471  -0.00626   0.04834   1.38096
    D2       -0.68748  -0.00132  -0.03698   0.00386  -0.03039  -0.71787
    D3       -2.79319  -0.00070  -0.01788   0.00575  -0.01476  -2.80795
         Item               Value     Threshold  Converged?
 Maximum Force            0.035922     0.000450     NO 
 RMS     Force            0.012718     0.000300     NO 
 Maximum Displacement     0.630710     0.001800     NO 
 RMS     Displacement     0.247398     0.001200     NO 
 Predicted change in Energy=-2.150408D-03
 GradGradGradGradGradGradGradGradGradGradGradGradGradGradGradGradGradGrad

                          Input orientation:                          
 ---------------------------------------------------------------------
 Center     Atomic      Atomic             Coordinates (Angstroms)
 Number     Number       Type             X           Y           Z
 ---------------------------------------------------------------------
      1          6           0       -9.291563    1.349201    0.000799
      2         80           0       -7.203320    1.651559    0.004334
      3          1           0       -9.629229    1.102228    1.016367
      4          1           0       -9.541767    0.525549   -0.681467
      5          1           0       -9.787398    2.269103   -0.337960
      6         16           0       -4.885939    1.983746   -0.000270
      7          1           0       -4.590336    0.664693   -0.001812
 ---------------------------------------------------------------------
                    Distance matrix (angstroms):
                    1          2          3          4          5
     1  C    0.000000
     2  Hg   2.110022   0.000000
     3  H    1.098358   2.685332   0.000000
     4  H    1.098405   2.684503   1.795229   0.000000
     5  H    1.098557   2.678803   1.794663   1.793965   0.000000
     6  S    4.451087   2.341073   4.930459   4.926165   4.921358
     7  H    4.750800   2.793140   5.159319   4.999797   5.449457
                    6          7
     6  S    0.000000
     7  H    1.351771   0.000000
 Stoichiometry    CH4HgS
 Framework group  C1[X(CH4HgS)]
 Deg. of freedom    15
 Full point group                 C1      NOp   1
 Largest Abelian subgroup         C1      NOp   1
 Largest concise Abelian subgroup C1      NOp   1
                         Standard orientation:                         
 ---------------------------------------------------------------------
 Center     Atomic      Atomic             Coordinates (Angstroms)
 Number     Number       Type             X           Y           Z
 ---------------------------------------------------------------------
      1          6           0        2.296625    0.042155   -0.003813
      2         80           0        0.187220   -0.008684    0.000957
      3          1           0        2.662032    0.244101    1.012103
      4          1           0        2.642948    0.832005   -0.684025
      5          1           0        2.678838   -0.929390   -0.345634
      6         16           0       -2.153249   -0.061754   -0.002267
      7          1           0       -2.289222    1.283159    0.000169
 ---------------------------------------------------------------------
 Rotational constants (GHZ):         100.4265057           2.0465924           2.0319235
 Standard basis: def2SVP (5D, 7F)
 There are    91 symmetry adapted cartesian basis functions of A   symmetry.
 There are    84 symmetry adapted basis functions of A   symmetry.
    84 basis functions,   155 primitive gaussians,    91 cartesian basis functions
    23 alpha electrons       23 beta electrons
       nuclear repulsion energy       151.4147875246 Hartrees.
 NAtoms=    7 NActive=    7 NUniq=    7 SFac= 1.00D+00 NAtFMM=   60 NAOKFM=F Big=F
 Integral buffers will be    131072 words long.
 Raffenetti 2 integral format.
 Two-electron integral symmetry is turned on.
 R6APFD:  NTU= -4 IXU= 1 FactS= 1.050
 Nuclear repulsion after empirical dispersion term =      151.3908394265 Hartrees.
 One-electron integrals computed using PRISM.
 PrsmSu:  requested number of processors reduced to:  13 ShMem   1 Linda.
   1 Symmetry operations used in ECPInt.
 ECPInt:  NShTT=     741 NPrTT=    2476 LenC2=     734 LenP2D=    2090.
 LDataN:  DoStor=T MaxTD1= 8 Len=  415
 NBasis=    84 RedAO= T EigKep=  8.45D-03  NBF=    84
 NBsUse=    84 1.00D-06 EigRej= -1.00D+00 NBFU=    84
 Defaulting to unpruned grid for atomic number  80.
 Lowest energy guess from the checkpoint file:  "ch3hgSH_gas_apfd_def2svp.chk"
 B after Tr=     0.000000    0.000000    0.000000
         Rot=    0.999997   -0.002259   -0.000035   -0.000451 Ang=  -0.26 deg.
 B after Tr=    -0.000000    0.000000    0.000000
         Rot=    1.000000    0.000000    0.000000    0.000000 Ang=   0.00 deg.
 Keep R1 ints in memory in canonical form, NReq=28287246.
 Requested convergence on RMS density matrix=1.00D-08 within 128 cycles.
 Requested convergence on MAX density matrix=1.00D-06.
 Requested convergence on             energy=1.00D-06.
 No special actions if energy rises.
 Integral accuracy reduced to 1.0D-05 until final iterations.
 Defaulting to unpruned grid for atomic number  80.
 Defaulting to unpruned grid for atomic number  80.
 Defaulting to unpruned grid for atomic number  80.
 Defaulting to unpruned grid for atomic number  80.
 Defaulting to unpruned grid for atomic number  80.
 Defaulting to unpruned grid for atomic number  80.
 Defaulting to unpruned grid for atomic number  80.
 Defaulting to unpruned grid for atomic number  80.
 Defaulting to unpruned grid for atomic number  80.
 Defaulting to unpruned grid for atomic number  80.
 Defaulting to unpruned grid for atomic number  80.
 Defaulting to unpruned grid for atomic number  80.
 Defaulting to unpruned grid for atomic number  80.
 Defaulting to unpruned grid for atomic number  80.
 Defaulting to unpruned grid for atomic number  80.
 Defaulting to unpruned grid for atomic number  80.
 Defaulting to unpruned grid for atomic number  80.
 Defaulting to unpruned grid for atomic number  80.
 Defaulting to unpruned grid for atomic number  80.
 Defaulting to unpruned grid for atomic number  80.
 Defaulting to unpruned grid for atomic number  80.
 Defaulting to unpruned grid for atomic number  80.
 Defaulting to unpruned grid for atomic number  80.
 Defaulting to unpruned grid for atomic number  80.
 Initial convergence to 1.0D-05 achieved.  Increase integral accuracy.
 SCF Done:  E(RAPFD) =  -591.976352139     A.U. after   11 cycles
            NFock= 11  Conv=0.63D-08     -V/T= 2.2132
 R6APFD:  NTU= -4 IXU= 1 FactS= 1.050
 PrsmSu:  requested number of processors reduced to:  13 ShMem   1 Linda.
   1 Symmetry operations used in ECPInt.
 ECPInt:  NShTT=     741 NPrTT=    2476 LenC2=     734 LenP2D=    2090.
 LDataN:  DoStor=T MaxTD1= 9 Len=  602
 Calling FoFJK, ICntrl=      2127 FMM=F ISym2X=0 I1Cent= 0 IOpClX= 0 NMat=1 NMatS=1 NMatT=0.
 Defaulting to unpruned grid for atomic number  80.
 Defaulting to unpruned grid for atomic number  80.
 Defaulting to unpruned grid for atomic number  80.
 Defaulting to unpruned grid for atomic number  80.
 Defaulting to unpruned grid for atomic number  80.
 Defaulting to unpruned grid for atomic number  80.
 Defaulting to unpruned grid for atomic number  80.
 Defaulting to unpruned grid for atomic number  80.
 Defaulting to unpruned grid for atomic number  80.
 Defaulting to unpruned grid for atomic number  80.
 Defaulting to unpruned grid for atomic number  80.
 Defaulting to unpruned grid for atomic number  80.
 Defaulting to unpruned grid for atomic number  80.
 Defaulting to unpruned grid for atomic number  80.
 Defaulting to unpruned grid for atomic number  80.
 Defaulting to unpruned grid for atomic number  80.
 Defaulting to unpruned grid for atomic number  80.
 Defaulting to unpruned grid for atomic number  80.
 Defaulting to unpruned grid for atomic number  80.
 Defaulting to unpruned grid for atomic number  80.
 Defaulting to unpruned grid for atomic number  80.
 Defaulting to unpruned grid for atomic number  80.
 Defaulting to unpruned grid for atomic number  80.
 Defaulting to unpruned grid for atomic number  80.
 ***** Axes restored to original set *****
 -------------------------------------------------------------------
 Center     Atomic                   Forces (Hartrees/Bohr)
 Number     Number              X              Y              Z
 -------------------------------------------------------------------
      1        6           0.004916941    0.001535222    0.000353319
      2       80          -0.003425670   -0.002168716   -0.000235626
      3        1           0.000251797    0.000127627   -0.000037255
      4        1           0.000450037    0.000111105   -0.000145204
      5        1          -0.000106527   -0.000139782   -0.000027454
      6       16          -0.001571177    0.000631520    0.000094030
      7        1          -0.000515401   -0.000096976   -0.000001810
 -------------------------------------------------------------------
 Cartesian Forces:  Max     0.004916941 RMS     0.001490479

 GradGradGradGradGradGradGradGradGradGradGradGradGradGradGradGradGradGrad
 Berny optimization.
 Using GEDIIS/GDIIS optimizer.
 FormGI is forming the generalized inverse of G from B-inverse, IUseBI=4.
 Internal  Forces:  Max     0.005689916 RMS     0.001570207
 Search for a local minimum.
 Step number   4 out of a maximum of   28
 All quantities printed in internal units (Hartrees-Bohrs-Radians)
 Mixed Optimization -- RFO/linear search
 Update second derivatives using D2CorX and points    1    3    2    4
 DE= -1.29D-03 DEPred=-2.15D-03 R= 6.02D-01
 TightC=F SS=  1.41D+00  RLast= 1.86D-01 DXNew= 4.2426D-01 5.5723D-01
 Trust test= 6.02D-01 RLast= 1.86D-01 DXMaxT set to 4.24D-01
 The second derivative matrix:
                          R1        R2        R3        R4        R5
           R1           0.17723
           R2          -0.00478   0.35806
           R3          -0.00515   0.00201   0.35790
           R4          -0.00499   0.00196   0.00197   0.35770
           R5           0.01940  -0.00409  -0.00412  -0.00386   0.13100
           R6           0.00187  -0.00065  -0.00067  -0.00065   0.00245
           A1           0.00493  -0.00111  -0.00117  -0.00118   0.00875
           A2           0.00188  -0.00064  -0.00067  -0.00075   0.00774
           A3           0.00540  -0.00146  -0.00156  -0.00138   0.00728
           A4          -0.00191   0.00088   0.00094   0.00088  -0.00763
           A5          -0.00248   0.00098   0.00104   0.00101  -0.00780
           A6          -0.00698   0.00128   0.00133   0.00134  -0.00808
           A7           0.00022  -0.00022  -0.00009  -0.00024  -0.01112
           A8          -0.01016   0.00051   0.00016   0.00114   0.00682
           A9          -0.00089  -0.00003  -0.00002  -0.00002   0.00035
           D1          -0.00100   0.00013   0.00011   0.00017   0.00021
           D2           0.00108  -0.00014  -0.00013  -0.00017  -0.00012
           D3          -0.00009   0.00001   0.00002  -0.00000  -0.00006
                          R6        A1        A2        A3        A4
           R6           0.25178
           A1           0.00008   0.15901
           A2          -0.00023  -0.00151   0.15781
           A3           0.00047  -0.00009  -0.00204   0.16436
           A4          -0.00001   0.00120   0.00291  -0.00135   0.15889
           A5          -0.00001   0.00112   0.00258  -0.00048  -0.00152
           A6          -0.00026   0.00039   0.00035  -0.00031  -0.00022
           A7           0.00042   0.00348   0.00546  -0.00305  -0.00088
           A8          -0.00000  -0.00286  -0.01577   0.02039  -0.00342
           A9          -0.00003  -0.00022  -0.00029   0.00002   0.00012
           D1          -0.00003  -0.00026  -0.00087   0.00111  -0.00023
           D2           0.00004   0.00026   0.00072  -0.00077   0.00011
           D3          -0.00002  -0.00002   0.00017  -0.00038   0.00014
                          A5        A6        A7        A8        A9
           A5           0.15829
           A6          -0.00007   0.15975
           A7          -0.00215  -0.00290   0.16058
           A8           0.00228  -0.00061  -0.02725   0.10067
           A9           0.00016   0.00020   0.00012   0.00071   0.00232
           D1           0.00009   0.00015  -0.00155   0.00636   0.00005
           D2          -0.00013  -0.00018   0.00110  -0.00467  -0.00004
           D3           0.00005   0.00005   0.00052  -0.00183  -0.00001
                          D1        D2        D3
           D1           0.00269
           D2          -0.00029   0.00252
           D3          -0.00011   0.00008   0.00233
 ITU=  1 -1  1  0
 Use linear search instead of GDIIS.
     Eigenvalues ---    0.00230   0.00230   0.07410   0.09938   0.11137
     Eigenvalues ---    0.11433   0.15403   0.15962   0.16001   0.18487
     Eigenvalues ---    0.19169   0.25189   0.35582   0.35599   0.36271
 RFO step:  Lambda=-1.67446877D-04 EMin= 2.29989937D-03
 Quartic linear search produced a step of -0.15242.
 Iteration  1 RMS(Cart)=  0.02024919 RMS(Int)=  0.00039188
 Iteration  2 RMS(Cart)=  0.00060016 RMS(Int)=  0.00005216
 Iteration  3 RMS(Cart)=  0.00000034 RMS(Int)=  0.00005216
 Variable       Old X    -DE/DX   Delta X   Delta X   Delta X     New X
                                 (Linear)    (Quad)   (Total)
    R1        3.98736  -0.00569  -0.00685  -0.02272  -0.02957   3.95780
    R2        2.07560  -0.00014  -0.00011  -0.00083  -0.00094   2.07466
    R3        2.07568  -0.00010  -0.00009  -0.00073  -0.00082   2.07486
    R4        2.07597  -0.00006  -0.00010  -0.00065  -0.00075   2.07522
    R5        4.42399  -0.00199   0.00536  -0.01792  -0.01256   4.41142
    R6        2.55448  -0.00002  -0.00019   0.00047   0.00027   2.55475
    A1        1.91232  -0.00025  -0.00214   0.00274   0.00065   1.91297
    A2        1.91127  -0.00078  -0.00242   0.00038  -0.00207   1.90920
    A3        1.90415   0.00048  -0.00084   0.00290   0.00206   1.90621
    A4        1.91313   0.00023   0.00167  -0.00077   0.00094   1.91406
    A5        1.91204   0.00023   0.00184  -0.00167   0.00025   1.91228
    A6        1.91088   0.00009   0.00182  -0.00356  -0.00182   1.90905
    A7        1.64888  -0.00134   0.00292  -0.00914  -0.00621   1.64267
    A8        3.14016   0.00226   0.02579  -0.00873   0.01706   3.15722
    A9        3.13407   0.00019   0.00138   0.05773   0.05909   3.19316
    D1        1.38096   0.00016   0.00416   0.00181   0.00600   1.38696
    D2       -0.71787  -0.00016  -0.00316   0.00646   0.00339  -0.71448
    D3       -2.80795   0.00001  -0.00152  -0.00041  -0.00206  -2.81001
         Item               Value     Threshold  Converged?
 Maximum Force            0.005690     0.000450     NO 
 RMS     Force            0.001570     0.000300     NO 
 Maximum Displacement     0.048706     0.001800     NO 
 RMS     Displacement     0.020491     0.001200     NO 
 Predicted change in Energy=-1.278755D-04
 GradGradGradGradGradGradGradGradGradGradGradGradGradGradGradGradGradGrad

                          Input orientation:                          
 ---------------------------------------------------------------------
 Center     Atomic      Atomic             Coordinates (Angstroms)
 Number     Number       Type             X           Y           Z
 ---------------------------------------------------------------------
      1          6           0       -9.283467    1.349615    0.000376
      2         80           0       -7.208600    1.633985   -0.021440
      3          1           0       -9.610950    1.104114    1.019096
      4          1           0       -9.546071    0.528904   -0.680071
      5          1           0       -9.778209    2.271670   -0.332790
      6         16           0       -4.901395    1.987928    0.011206
      7          1           0       -4.600858    0.669862    0.003615
 ---------------------------------------------------------------------
                    Distance matrix (angstroms):
                    1          2          3          4          5
     1  C    0.000000
     2  Hg   2.094377   0.000000
     3  H    1.097864   2.671097   0.000000
     4  H    1.097969   2.668102   1.795061   0.000000
     5  H    1.098159   2.665796   1.794089   1.792128   0.000000
     6  S    4.428332   2.334425   4.896619   4.917279   4.897159
     7  H    4.731691   2.780374   5.130380   4.994239   5.429910
                    6          7
     6  S    0.000000
     7  H    1.351916   0.000000
 Stoichiometry    CH4HgS
 Framework group  C1[X(CH4HgS)]
 Deg. of freedom    15
 Full point group                 C1      NOp   1
 Largest Abelian subgroup         C1      NOp   1
 Largest concise Abelian subgroup C1      NOp   1
                         Standard orientation:                         
 ---------------------------------------------------------------------
 Center     Atomic      Atomic             Coordinates (Angstroms)
 Number     Number       Type             X           Y           Z
 ---------------------------------------------------------------------
      1          6           0        2.281334    0.022850    0.026910
      2         80           0        0.187391   -0.004240   -0.006069
      3          1           0        2.631086    0.225783    1.047594
      4          1           0        2.646471    0.805339   -0.651264
      5          1           0        2.660723   -0.952894   -0.304662
      6         16           0       -2.145967   -0.071832    0.014123
      7          1           0       -2.282123    1.273188    0.006388
 ---------------------------------------------------------------------
 Rotational constants (GHZ):         100.3016818           2.0639541           2.0493827
 Standard basis: def2SVP (5D, 7F)
 There are    91 symmetry adapted cartesian basis functions of A   symmetry.
 There are    84 symmetry adapted basis functions of A   symmetry.
    84 basis functions,   155 primitive gaussians,    91 cartesian basis functions
    23 alpha electrons       23 beta electrons
       nuclear repulsion energy       152.0166284325 Hartrees.
 NAtoms=    7 NActive=    7 NUniq=    7 SFac= 1.00D+00 NAtFMM=   60 NAOKFM=F Big=F
 Integral buffers will be    131072 words long.
 Raffenetti 2 integral format.
 Two-electron integral symmetry is turned on.
 R6APFD:  NTU= -4 IXU= 1 FactS= 1.050
 Nuclear repulsion after empirical dispersion term =      151.9925268138 Hartrees.
 One-electron integrals computed using PRISM.
 PrsmSu:  requested number of processors reduced to:  13 ShMem   1 Linda.
   1 Symmetry operations used in ECPInt.
 ECPInt:  NShTT=     741 NPrTT=    2476 LenC2=     734 LenP2D=    2091.
 LDataN:  DoStor=T MaxTD1= 8 Len=  415
 NBasis=    84 RedAO= T EigKep=  8.37D-03  NBF=    84
 NBsUse=    84 1.00D-06 EigRej= -1.00D+00 NBFU=    84
 Defaulting to unpruned grid for atomic number  80.
 Initial guess from the checkpoint file:  "ch3hgSH_gas_apfd_def2svp.chk"
 B after Tr=     0.000000   -0.000000    0.000000
         Rot=    1.000000    0.000678    0.000211    0.000079 Ang=   0.08 deg.
 ExpMin= 5.64D-02 ExpMax= 9.18D+03 ExpMxC= 1.38D+03 IAcc=2 IRadAn=         4 AccDes= 0.00D+00
 Harris functional with IExCor= 3731 and IRadAn=       4 diagonalized for initial guess.
 HarFok:  IExCor= 3731 AccDes= 0.00D+00 IRadAn=         4 IDoV= 1 UseB2=F ITyADJ=14
 ICtDFT=  3500011 ScaDFX=  1.000000  1.000000  1.000000  1.000000
 Defaulting to unpruned grid for atomic number  80.
 FoFCou: FMM=F IPFlag=           0 FMFlag=      100000 FMFlg1=           0
         NFxFlg=           0 DoJE=T BraDBF=F KetDBF=T FulRan=T
         wScrn=  0.000000 ICntrl=       500 IOpCl=  0 I1Cent=   200000004 NGrid=           0
         NMat0=    1 NMatS0=      1 NMatT0=    0 NMatD0=    1 NMtDS0=    0 NMtDT0=    0
 Petite list used in FoFCou.
 Keep R1 ints in memory in canonical form, NReq=28287246.
 Requested convergence on RMS density matrix=1.00D-08 within 128 cycles.
 Requested convergence on MAX density matrix=1.00D-06.
 Requested convergence on             energy=1.00D-06.
 No special actions if energy rises.
 Integral accuracy reduced to 1.0D-05 until final iterations.
 Defaulting to unpruned grid for atomic number  80.
 Defaulting to unpruned grid for atomic number  80.
 Defaulting to unpruned grid for atomic number  80.
 Defaulting to unpruned grid for atomic number  80.
 Defaulting to unpruned grid for atomic number  80.
 Defaulting to unpruned grid for atomic number  80.
 Defaulting to unpruned grid for atomic number  80.
 Defaulting to unpruned grid for atomic number  80.
 Defaulting to unpruned grid for atomic number  80.
 Defaulting to unpruned grid for atomic number  80.
 Defaulting to unpruned grid for atomic number  80.
 Defaulting to unpruned grid for atomic number  80.
 Defaulting to unpruned grid for atomic number  80.
 Defaulting to unpruned grid for atomic number  80.
 Defaulting to unpruned grid for atomic number  80.
 Defaulting to unpruned grid for atomic number  80.
 Defaulting to unpruned grid for atomic number  80.
 Defaulting to unpruned grid for atomic number  80.
 Defaulting to unpruned grid for atomic number  80.
 Defaulting to unpruned grid for atomic number  80.
 Defaulting to unpruned grid for atomic number  80.
 Defaulting to unpruned grid for atomic number  80.
 Defaulting to unpruned grid for atomic number  80.
 Defaulting to unpruned grid for atomic number  80.
 Initial convergence to 1.0D-05 achieved.  Increase integral accuracy.
 SCF Done:  E(RAPFD) =  -591.976452841     A.U. after   11 cycles
            NFock= 11  Conv=0.22D-08     -V/T= 2.2132
 R6APFD:  NTU= -4 IXU= 1 FactS= 1.050
 PrsmSu:  requested number of processors reduced to:  13 ShMem   1 Linda.
   1 Symmetry operations used in ECPInt.
 ECPInt:  NShTT=     741 NPrTT=    2476 LenC2=     734 LenP2D=    2091.
 LDataN:  DoStor=T MaxTD1= 9 Len=  602
 Calling FoFJK, ICntrl=      2127 FMM=F ISym2X=0 I1Cent= 0 IOpClX= 0 NMat=1 NMatS=1 NMatT=0.
 Defaulting to unpruned grid for atomic number  80.
 Defaulting to unpruned grid for atomic number  80.
 Defaulting to unpruned grid for atomic number  80.
 Defaulting to unpruned grid for atomic number  80.
 Defaulting to unpruned grid for atomic number  80.
 Defaulting to unpruned grid for atomic number  80.
 Defaulting to unpruned grid for atomic number  80.
 Defaulting to unpruned grid for atomic number  80.
 Defaulting to unpruned grid for atomic number  80.
 Defaulting to unpruned grid for atomic number  80.
 Defaulting to unpruned grid for atomic number  80.
 Defaulting to unpruned grid for atomic number  80.
 Defaulting to unpruned grid for atomic number  80.
 Defaulting to unpruned grid for atomic number  80.
 Defaulting to unpruned grid for atomic number  80.
 Defaulting to unpruned grid for atomic number  80.
 Defaulting to unpruned grid for atomic number  80.
 Defaulting to unpruned grid for atomic number  80.
 Defaulting to unpruned grid for atomic number  80.
 Defaulting to unpruned grid for atomic number  80.
 Defaulting to unpruned grid for atomic number  80.
 Defaulting to unpruned grid for atomic number  80.
 Defaulting to unpruned grid for atomic number  80.
 Defaulting to unpruned grid for atomic number  80.
 ***** Axes restored to original set *****
 -------------------------------------------------------------------
 Center     Atomic                   Forces (Hartrees/Bohr)
[...]
           vibrations may cause significant error
 Vibrational temperatures:     55.24   183.15   184.10   534.34   848.35
          (Kelvin)            944.22  1103.32  1112.05  1735.30  2058.67
                             2059.90  3889.85  4419.26  4590.48  4594.06
 
 Zero-point correction=                           0.044830 (Hartree/Particle)
 Thermal correction to Energy=                    0.050728
 Thermal correction to Enthalpy=                  0.051672
 Thermal correction to Gibbs Free Energy=         0.013504
 Sum of electronic and zero-point Energies=           -591.931669
 Sum of electronic and thermal Energies=              -591.925771
 Sum of electronic and thermal Enthalpies=            -591.924827
 Sum of electronic and thermal Free Energies=         -591.962994
 
                     E (Thermal)             CV                S
                      KCal/Mol        Cal/Mol-Kelvin    Cal/Mol-Kelvin
 Total                   31.832             17.090             80.331
 Electronic               0.000              0.000              0.000
 Translational            0.889              2.981             42.449
 Rotational               0.889              2.981             24.136
 Vibrational             30.055             11.128             13.746
 Vibration     1          0.594              1.982              5.340
 Vibration     2          0.611              1.926              2.987
 Vibration     3          0.611              1.925              2.976
 Vibration     4          0.743              1.531              1.074
 Vibration     5          0.947              1.054              0.468
                       Q            Log10(Q)             Ln(Q)
 Total Bot       0.614368D-06         -6.211572        -14.302672
 Total V=0       0.256271D+15         14.408700         33.177257
 Vib (Bot)       0.941361D-19        -19.026244        -43.809545
 Vib (Bot)    1  0.539000D+01          0.731589          1.684545
 Vib (Bot)    2  0.160260D+01          0.204825          0.471627
 Vib (Bot)    3  0.159402D+01          0.202493          0.466257
 Vib (Bot)    4  0.489747D+00         -0.310028         -0.713866
 Vib (Bot)    5  0.255938D+00         -0.591865         -1.362820
 Vib (V=0)       0.392670D+02          1.594027          3.670384
 Vib (V=0)    1  0.591314D+01          0.771818          1.777177
 Vib (V=0)    2  0.217879D+01          0.338215          0.778768
 Vib (V=0)    3  0.217060D+01          0.336579          0.775002
 Vib (V=0)    4  0.119989D+01          0.079143          0.182234
 Vib (V=0)    5  0.106170D+01          0.026001          0.059869
 Electronic      0.100000D+01          0.000000          0.000000
 Translational   0.155345D+09          8.191296         18.861156
 Rotational      0.420123D+05          4.623376         10.645717
 ***** Axes restored to original set *****
 -------------------------------------------------------------------
 Center     Atomic                   Forces (Hartrees/Bohr)
 Number     Number              X              Y              Z
 -------------------------------------------------------------------
      1        6          -0.000001718    0.000002458    0.000003032
      2       80          -0.000003873   -0.000000056   -0.000001466
      3        1          -0.000001643   -0.000001085   -0.000000365
      4        1           0.000002685   -0.000002564   -0.000001108
      5        1           0.000000392    0.000000422   -0.000000719
      6       16           0.000003195   -0.000000319   -0.000000079
      7        1           0.000000963    0.000001143    0.000000705
 -------------------------------------------------------------------
 Cartesian Forces:  Max     0.000003873 RMS     0.000001803
 FormGI is forming the generalize
 GradGradGradGradGradGradGradGradGradGra
 GradGradGradGradGradGradGradGradGradGradGradGradGradGradGradGradGradGrad
 Berny optimization.
 Internal  Forces:  Max     0.000004999 RMS     0.000002004
 Search for a local minimum.
 Step number   1 out of a maximum of    2
 All quantities printed in internal units (Hartrees-Bohrs-Radians)
 Second derivative matrix not updated -- analytic derivatives used.
 The second derivative matrix:
                          R1        R2        R3        R4        R5
           R1           0.18394
           R2           0.00127   0.35155
           R3           0.00132  -0.00010   0.35105
           R4           0.00127  -0.00012  -0.00010   0.35156
           R5           0.00304   0.00054   0.00063   0.00054   0.15032
           R6          -0.00015   0.00001  -0.00003   0.00001   0.00000
           A1           0.01065  -0.00082  -0.00593  -0.00566   0.00294
           A2           0.01028  -0.00582  -0.00034  -0.00582   0.00268
           A3           0.01065  -0.00566  -0.00593  -0.00082   0.00294
           A4          -0.01058   0.00749   0.00758  -0.00275  -0.00292
           A5          -0.01047   0.00755  -0.00290   0.00755  -0.00273
           A6          -0.01058  -0.00275   0.00758   0.00749  -0.00292
           A7           0.00188  -0.00002   0.00020  -0.00002   0.01205
           A8          -0.00073   0.00092  -0.00194   0.00092  -0.00077
           A9           0.00000   0.00078   0.00000  -0.00078   0.00000
           D1          -0.00025   0.00002   0.00509  -0.00504  -0.00020
           D2           0.00000  -0.00514  -0.00000   0.00514   0.00000
           D3           0.00025   0.00504  -0.00509  -0.00002   0.00020
                          R6        A1        A2        A3        A4
           R6           0.27031
           A1          -0.00013   0.07313
           A2           0.00023  -0.01148   0.07386
           A3          -0.00013  -0.01065  -0.01148   0.07313
           A4           0.00002  -0.02705  -0.02537   0.00128   0.05821
           A5          -0.00000  -0.02537  -0.00005  -0.02537  -0.00387
           A6           0.00002   0.00128  -0.02537  -0.02705  -0.00308
           A7           0.00577  -0.00320   0.00678  -0.00320   0.00036
           A8          -0.00053   0.01226  -0.02444   0.01225  -0.00543
           A9          -0.00000   0.00864   0.00000  -0.00864   0.00168
           D1          -0.00001   0.00106   0.00311  -0.00413   0.01903
           D2           0.00000  -0.00480   0.00000   0.00480  -0.01891
           D3           0.00001   0.00413  -0.00311  -0.00106   0.00029
                          A5        A6        A7        A8        A9
           A5           0.05846
           A6          -0.00387   0.05821
           A7          -0.00108   0.00036   0.10609
           A8           0.01064  -0.00543  -0.02623   0.10827
           A9          -0.00000  -0.00168   0.00000   0.00000   0.02367
           D1          -0.01869  -0.00029  -0.00158   0.00333   0.00148
           D2           0.00000   0.01891  -0.00000   0.00000  -0.00278
           D3           0.01869  -0.01903   0.00158  -0.00333   0.00148
                          D1        D2        D3
           D1           0.01747
           D2          -0.00872   0.01705
           D3            Eigenvalues ---    0.00010   0.02073     Eigenvalues ---    0.00010   0.02073   0.05470   0.06760   0.08492
     Eigenvalues ---    0.09281   0.09969   0.10571   0.14171   0.15626
     Eigenvalues ---    0.19210   0.27053   0.35199   0.35241   0. Iteration  1 RMS(Cart)=  0.00006130 RMS(Int)=  0.00000000
 Iteration  2 RMS(Cart)=  0.00000000 RMS(Int)=  0.00000000
 Variable       Old X    -DE/DX   Delta X   Delta  Iteration  2 RMS(Cart)=  0.00000000 RMS(Int)=  0.00000000
 Variable       Old X    -DE/DX   Delta X   Delta X   Delta X     New X
                                 (Linear)    (Quad)   (Total)
    R1        3.95460   0.00000   0.00000   0.00000   0.00000   3.95460
    R2        2.07558   0.00000   0.00000  -0.00000  -0.00000   2.07558
    R3        2.07606   0.00000   0.00000   0.00001   0.00001   2.07606
    R4        2.07558   0.00000   0.00000   0.00000   0.00000   2.07558
    R5        4.41124   0.00000   0.00000   0.00003   0.00003   4.41126
    R6        2.55456  -0.00000   0.00000  -0.00000  -0.00000   2.55456
    A1        1.91267   0.00000   0.00000   0.00005   0.00005   1.91271
    A2        1.90801  -0.00000   0.00000  -0.00007  -0.00007   1.90794
    A3        1.91271  -0.00000   0.00000  -0.00000  -0.00000   1.91271
    A4        1.90888   0.00000   0.00000   0.00000   0.00000   1.90888
    A5        1.91265   0.00000   0.00000   0.00001   0.00001   1.91267
    A6        1.90887   0.00000   0.00000   0.00001   0.00001   1.90888
    A7        1.64321   0.00000   0.00000   0.00002   0.00002   1.64323
    A8        3.15879  -0.00000   0.00000  -0.00003  -0.00003   3.15876
    A9        3.14160   0.00000   0.00000  -0.00000  -0.00000   3.14159
    D1        2.09484  -0.00000   0.00000  -0.00013  -0.00013   2.09470
    D2        0.00019  -0.00000   0.00000  -0.00012  -0.00012   0.00007
    D3       -2.09449   0.00000   0.00000  -0.00008  -0.00008  -2.09457
         Item               Value     Threshold  Converged?
 Maximum Force            0.000005     0.000450     YES
 RMS     Force            0.000002     0.000300     YES
 Maximum Displacement     0.000128     0.001800     YES
 RMS     Displacement     0.000061     0.001200     YES
 Predicted change in Energy=-3.945151D-10
 Optimization completed.
    -- Stationary point found.
                           ----------------------------
                           !   Optimized Parameters   !
                           ! (Angstroms and Degrees)  !
 --------------------------                            --------------------------
 ! Name  Definition              Value          Derivative Info.                !
 --------------------------------------------------------------------------------
 ! R1    R(1,2)                  2.0927         -DE/DX =    0.0                 !
 ! R2    R(1,3)                  1.0983         -DE/DX =    0.0                 !
 ! R3    R(1,4)                  1.0986         -DE/DX =    0.0                 !
 ! R4    R(1,5)                  1.0983         -DE/DX =    0.0                 !
 ! R5    R(2,6)                  2.3343         -DE/DX =    0.0                 !
 ! R6    R(6,7)                  1.3518         -DE/DX =    0.0                 !
 ! A1    A(2,1,3)              109.5876         -DE/DX =    0.0                 !
 ! A2    A(2,1,4)              109.3207         -DE/DX =    0.0                 !
 ! A3    A(2,1,5)              109.5905         -DE/DX =    0.0                 !
 ! A4    A(3,1,4)              109.3706         -DE/DX =    0.0                 !
 ! A5    A(3,1,5)              109.5869         -DE/DX =    0.0                 !
 ! A6    A(4,1,5)              109.3703         -DE/DX =    0.0                 !
 ! A7    A(2,6,7)               94.149          -DE/DX =    0.0                 !
 ! A8    L(1,2,6,7,-1)         180.9851         -DE/DX =    0.0                 !
 ! A9    L(1,2,6,7,-2)         180.0003         -DE/DX =    0.0                 !
 ! D1    D(3,1,6,7)            120.0254         -DE/DX =    0.0                 !
 ! D2    D(4,1,6,7)              0.0107         -DE/DX =    0.0                 !
 ! D3    D(5,1,6,7)           -120.0056         -DE/DX =    0.0                 !
 -----------------------------------------------
 ----------------------------------------------------------------------

 Electric dipole moment (input orie
 ----------------------------------------------------------------------

 Electric dipole moment (input orientation):
 (Debye = 10**-18 statcoulomb cm , SI units = C m)
                  (au)            (Debye)         (10**-30 SI)
   Tot        0.908213D+00      0.230845D+01      0.770015D+01
   x         -0.789409D+00     -0.200648D+01     -0.669289D+01
   y         -0.385661D+00     -0.980252D+00     -0.326977D+01
   z         -0.230107D+00     -0.584873D+00     -0.195092D+01

 Dipole polarizability, Alpha (input orientation).
 (esu units = cm**3 , SI units = C**2 m**2 J**-1)
 Alpha(0;0):
               (au)            (10**-24 esu)      (10**-40 SI)
   iso        0.588398D+02      0.871916D+01      0.970137D+01
   aniso      0.506829D+02      0.751043D+01      0.835648D+01
   xx         0.921248D+02      0.136515D+02      0.151893D+02
   yx         0.403032D+01      0.597231D+00      0.664509D+00
   yy         0.432353D+02      0.640682D+01      0.712854D+01
   zx         0.202826D+01      0.300556D+00      0.334414D+00
   zy         0.197508D+01      0.292677D+00      0.325647D+00
   zz         0.411593D+02      0.609918D+01      0.678626D+01

 ----------------------------------------------------------------------

 Dipole orientation:
     6         -7.72732928         -7.34786862         14.16024484
    80         -6.52304669         -6.48236135         10.49425870
     1         -9.66190490         -6.64993614         14.44012433
     1         -6.46190555         -6.43801568         15.53169839
     1         -7.68204218         -9.40395017         14.44041839
    16         -5.23700296         -5.55807878          6.37712432
     1         -3.25207144         -4.13158312          7.11936434

 Electric dipole moment (dipole orientation):
 (Debye = 10**-18 statcoulomb cm , SI units = C m)
                  (au)            (Debye)         (10**-30 SI)
   Tot        0.908213D+00      0.230845D+01      0.770015D+01
   x          0.000000D+00      0.000000D+00      0.000000D+00
   y          0.000000D+00      0.000000D+00      0.000000D+00
   z          0.908213D+00      0.230845D+01      0.770015D+01

 Dipole polarizability, Alpha (dipole orientation).
 (esu units = cm**3 , SI units = C**2 m**2 J**-1)
 Alpha(0;0):
               (au)            (10**-24 esu)      (10**-40 SI)
   iso        0.588398D+02      0.871916D+01      0.970137D+01
   aniso      0.506829D+02      0.751043D+01      0.835648D+01
   xx         0.480488D+02      0.712010D+01      0.792218D+01
   yx         0.581073D+01      0.861061D+00      0.958060D+00
   yy         0.441396D+02      0.654081D+01      0.727764D+01
   zx        -0.147808D+02     -0.219028D+01     -0.243702D+01
   zy        -0.106229D+02     -0.157415D+01     -0.175147D+01
   zz         0.843310D+02      0.124966D+02      0.139043D+02

 ----------------------------------------------------------------------
 1\1\GINC-GRANADO-COMPUTE-1\Freq\RAPFD\def2SVP\C1H4Hg1S1\ROOT\25-Aug-20
 22\0\\#N Geom=AllCheck Guess=TCheck SCRF=Check GenChk RAPFD/def2SVP Fr
 eq\\Optimization MeHgSH-gas-apfd-def2svp phase\\0,1\C,-9.2824341116,1.
 351165627,0.0045864486\Hg,-7.2082246356,1.5951626463,0.1366682228\H,-9
 .7090619502,1.2735479417,1.0137118518\H,-9.5054595732,0.4335890948,-0.
 5568758575\H,-9.7221857638,2.2126512103,-0.5158262678\S,-4.90016146,1.
 901167519,0.3048378093\H,-4.6020235057,0.7787949608,-0.3871112072\\Ver
 sion=EM64L-G16RevA.03\State=1-A\HF=-591.9764988\RMSD=7.296e-09\RMSF=1.
 803e-06\ZeroPoint=0.0448298\Thermal=0.0507281\Dipole=-0.7894091,-0.385
 661,-0.2301066\DipoleDeriv=-0.2022865,-0.0005889,-0.0000302,0.0319499,
 -0.1822768,-0.0115194,0.0199338,-0.0112431,-0.1710454,1.275855,0.08278
 09,0.0424793,0.0322357,0.313371,0.0080508,0.0114378,0.0076181,0.304396
 ,-0.090825,-0.0151455,0.0838944,-0.020342,0.0701722,0.012579,0.0350292
 ,0.0082029,-0.0132728,-0.0442245,-0.07824,-0.0470497,-0.0411933,-0.010
 8504,-0.0502482,-0.0242997,-0.0499299,0.0411185,-0.09256,0.067683,-0.0
 500513,0.0216962,0.0128836,0.036955,-0.0325999,0.0408938,0.0457536,-0.
 8889896,-0.0360311,-0.0173994,-0.028279,-0.2024011,0.0829803,-0.012639
 6,0.0830468,-0.2859856,0.0430306,-0.0204584,-0.0118431,0.0039326,-0.00
 08984,-0.0787976,0.0031384,-0.0785887,0.0790357\Polar=92.1247731,4.030
 316,43.2353327,2.0282552,1.9750839,41.1593208\Quadrupole=-2.6540287,1.
 7809402,0.8730886,-2.2491569,-1.3563034,0.9379106\PG=C01 [X(C1H4Hg1S1)
 ]\NImag=0\\0.34904449,-0.02300723,0.53347932,-0.01249903,-0.00259698,0
 .53654224,-0.15697437,-0.01428230,-0.00769005,0.32347274,-0.01513583,-
 0.03449908,-0.00217290,0.03153645,0.05409492,-0.00821461,-0.00218034,-
 0.03201822,0.01694289,0.00812266,0.04527424,-0.07615202,-0.00682282,0.
 11718595,-0.00804133,-0.00089141,0.01550667,0.08044750,-0.00631208,-0.
 04494936,0.02067412,-0.00078299,-0.00125522,0.00165320,0.00739751,0.04
 364885,0.10149397,0.01867138,-0.28621138,-0.00252486,-0.00034094,0.004
 38341,-0.11004312,-0.02012643,0.30520975,-0.04220920,-0.05918143,-0.03
 634493,-0.00496141,-0.01527202,-0.00934484,0.00172086,0.01125652,0.005
 76508,0.04679649,-0.04549437,-0.24496831,-0.12348170,0.00054515,0.0004
 9427,0.00105083,0.00069674,0.00304803,0.00382174,0.05052256,0.25847130
 ,-0.02794149,-0.12336418,-0.11871973,0.00036674,0.00118632,-0.00049964
 ,-0.00734387,-0.02376838,-0.01176363,0.03097879,0.13249588,0.12305133,
 -0.07901196,0.10386916,-0.06032537,-0.00821212,0.01332159,-0.00769474,
 0.00452557,-0.01106348,0.00583183,0.00183184,-0.00626190,0.00391570,0.
 08333833,0.09008215,-0.21947980,0.10640223,-0.00273305,0.00384047,-0.0
 0291098,0.00021081,-0.00065985,-0.00186587,0.01054823,-0.01674839,0.01
 378232,-0.09741000,0.23395137,-0.05278487,0.10829095,-0.10882304,0.000
 54560,-0.00105354,-0.00054020,-0.01286105,0.02180210,-0.01066884,0.007
 61137,-0.01357304,0.00792154,0.05766433,-0.11579237,0.11201741,0.00532
 685,0.00276018,0.00172384,-0.13918475,-0.02593642,-0.01484806,-0.00300
 204,-0.00046996,-0.00072863,-0.00198844,-0.00015275,-0.00007639,-0.002
 97031,-0.00087408,-0.00005485,0.16509309,0.00001239,0.01090113,0.00133
 539,-0.01343402,-0.02383480,-0.00661655,-0.00065053,0.00012787,-0.0001
 5218,0.00227960,-0.00033551,-0.00024252,-0.00249368,-0.00089260,0.0003
 9996,-0.02456623,0.20101875,0.00003678,0.00131225,0.00953220,-0.007168
 70,-0.00650944,-0.01681196,-0.00245398,-0.00013538,-0.00097730,0.00141
 703,-0.00022179,-0.00012047,0.00056463,0.00036752,0.00001176,-0.016460
 17,0.12049984,0.07933635,-0.00002379,-0.00333558,-0.00205042,-0.006098
 76,0.01237765,0.00765270,0.00050146,-0.00002552,0.00020573,-0.00119014
 ,0.00014456,0.00010052,0.00049865,0.00017593,-0.00012052,-0.02327440,0
 .03885248,0.02406441,0.02958698,-0.00014503,-0.00048389,-0.00016017,-0
 .00084924,0.00115944,0.00088118,0.00005969,0.00003969,-0.00000771,-0.0
 0015347,0.00003862,-0.00008944,0.00003832,-0.00001120,-0.00007406,0.04
 923926,-0.18698485,-0.11531300,-0.04818953,0.18624220,-0.00009074,-0.0
 0013308,-0.00030206,-0.00047161,0.00076784,0.00021236,0.00000939,-0.00
 009923,0.00002800,-0.00008251,-0.00009193,0.00013061,0.00004363,0.0000
 1715,0.00008137,0.03044426,-0.11522394,-0.07097058,-0.02985242,0.11476
 320,0.07082031\\0.00000172,-0.00000246,-0.00000303,0.00000387,0.000000
 06,0.00000147,0.00000164,0.00000108,0.00000037,-0.00000268,0.00000256,
 0.00000111,-0.00000039,-0.00000042,0.00000072,-0.00000319,0.00000032,0
 .00000008,-0.00000096,-0.00000114,-0.00000070\\\@


 OF ALL THE WONDERS OF THE UNIVERSE, THE GREATEST IS MAN.

                                    -- ARISTOTLE
 Job cpu time:       0 days  0 hours 22 minutes 15.4 seconds.
 Elapsed time:       0 days  0 hours  8 minutes 18.2 seconds.
 File lengths (MBytes):  RWF=     11 Int=      0 D2E=      0 Chk=      2 Scr=      1
 Normal termination of Gaussian 16 at Thu Aug 25 17:07:40 2022.
O
 THEY SPRANG UP AROUND THE NILE.
 BUT CHEMISTRY SURPASSED THE REST
 FAR AND AWAY IT WAS THE BEST.
 EXPERIMENT WAS GOD'S DECREE
 EXPERIMENT DID CHEMISTS WITH LOTS OF GLEE
 BUT SOON THEIR TESTS BEGAN TO BOG,
 THEY FOUND THEMSELVES DEEP IN A FOG.
 "GIVE US SOME HELP" THEY CRIED TO GOD.
 GOD LOOKED AROUND, THEN GAVE THE NOD.
 ENTER EINSTEIN, HEISENBERG, BOHR,
 REACTION PATHS WERE CLEAR ONCE MORE.
 WITH THEORISTS GOD SEND DIRECTION
 AND THEN HE STOPPED, HE'D MADE PERFECTION.
          -- THOMAS A. HOLME, 1981
 Job cpu time:       0 days  0 hours 22 minutes  9.7 seconds.
 Elapsed time:       0 days  0 hours  8 minutes 27.9 seconds.
 File lengths (MBytes):  RWF=     11 Int=      0 D2E=      0 Chk=      2 Scr=      1
 Normal termination of Gaussian 16 at Thu Aug 25 17:07:39 2022.
