 Entering Gaussian System, Link 0=g16
 Input=input.gjf
 Output=input.log
 Initial command:
 /opt/ohpc/pub/apps/gaussian/G16x86_64_legacy_CPUs_linux_binary/g16/l1.exe "/tmp/Gau-6560.inp" -scrdir="/tmp/"
 Entering Link 1 = /opt/ohpc/pub/apps/gaussian/G16x86_64_legacy_CPUs_linux_binary/g16/l1.exe PID=      6585.
  
 Copyright (c) 1988,1990,1992,1993,1995,1998,2003,2009,2016,
            Gaussian, Inc.  All Rights Reserved.
  
 This is part of the Gaussian(R) 16 program.  It is based on
 the Gaussian(R) 09 system (copyright 2009, Gaussian, Inc.),
 the Gaussian(R) 03 system (copyright 2003, Gaussian, Inc.),
 the Gaussian(R) 98 system (copyright 1998, Gaussian, Inc.),
 the Gaussian(R) 94 system (copyright 1995, Gaussian, Inc.),
 the Gaussian 92(TM) system (copyright 1992, Gaussian, Inc.),
 the Gaussian 90(TM) system (copyright 1990, Gaussian, Inc.),
 the Gaussian 88(TM) system (copyright 1988, Gaussian, Inc.),
 the Gaussian 86(TM) system (copyright 1986, Carnegie Mellon
 University), and the Gaussian 82(TM) system (copyright 1983,
 Carnegie Mellon University). Gaussian is a federally registered
 trademark of Gaussian, Inc.
  
 This software contains proprietary and confidential information,
 including trade secrets, belonging to Gaussian, Inc.
  
 This software is provided under written license and may be
 used, copied, transmitted, or stored only in accord with that
 written license.
  
 The following legend is applicable only to US Government
 contracts under FAR:
  
                    RESTRICTED RIGHTS LEGEND
  
 Use, reproduction and disclosure by the US Government is
 subject to restrictions as set forth in subparagraphs (a)
 and (c) of the Commercial Computer Software - Restricted
 Rights clause in FAR 52.227-19.
  
 Gaussian, Inc.
 340 Quinnipiac St., Bldg. 40, Wallingford CT 06492
  
  
 ---------------------------------------------------------------
 Warning -- This program may not be used in any manner that
 competes with the business of Gaussian, Inc. or will provide
 assistance to any competitor of Gaussian, Inc.  The licensee
 of this program is prohibited from giving any competitor of
 Gaussian, Inc. access to this program.  By using this program,
 the user acknowledges that Gaussian, Inc. is engaged in the
 business of creating and licensing software in the field of
 computational chemistry and represents and warrants to the
 licensee that it is not a competitor of Gaussian, Inc. and that
 it will not use this program in any manner prohibited above.
 ---------------------------------------------------------------
  

 Cite this work as:
 Gaussian 16, Revision A.03,
 M. J. Frisch, G. W. Trucks, H. B. Schlegel, G. E. Scuseria, 
 M. A. Robb, J. R. Cheeseman, G. Scalmani, V. Barone, 
 G. A. Petersson, H. Nakatsuji, X. Li, M. Caricato, A. V. Marenich, 
 J. Bloino, B. G. Janesko, R. Gomperts, B. Mennucci, H. P. Hratchian, 
 J. V. Ortiz, A. F. Izmaylov, J. L. Sonnenberg, D. Williams-Young, 
 F. Ding, F. Lipparini, F. Egidi, J. Goings, B. Peng, A. Petrone, 
 T. Henderson, D. Ranasinghe, V. G. Zakrzewski, J. Gao, N. Rega, 
 G. Zheng, W. Liang, M. Hada, M. Ehara, K. Toyota, R. Fukuda, 
 J. Hasegawa, M. Ishida, T. Nakajima, Y. Honda, O. Kitao, H. Nakai, 
 T. Vreven, K. Throssell, J. A. Montgomery, Jr., J. E. Peralta, 
 F. Ogliaro, M. J. Bearpark, J. J. Heyd, E. N. Brothers, K. N. Kudin, 
 V. N. Staroverov, T. A. Keith, R. Kobayashi, J. Normand, 
 K. Raghavachari, A. P. Rendell, J. C. Burant, S. S. Iyengar, 
 J. Tomasi, M. Cossi, J. M. Millam, M. Klene, C. Adamo, R. Cammi, 
 J. W. Ochterski, R. L. Martin, K. Morokuma, O. Farkas, 
 J. B. Foresman, and D. J. Fox, Gaussian, Inc., Wallingford CT, 2016.
 
 ******************************************
 Gaussian 16:  EM64L-G16RevA.03 25-Dec-2016
                20-May-2023 
 ******************************************
 %NProcShared=24
 Will use up to   24 processors via shared memory.
 %Chk=ch3hgSH_gas_pbeo_def2svp.chk
 ------------------------------
 #Opt Freq PBE1PBE/def2svp TEST
 ------------------------------
 1/18=20,19=15,26=3,38=1/1,3;
 2/9=110,12=2,17=6,18=5,40=1/2;
 3/5=43,7=101,11=2,25=1,30=1,71=1,74=-13/1,2,3;
 4//1;
 5/5=2,38=5/2;
 6/7=2,8=2,9=2,10=2,28=1/1;
 7//1,2,3,16;
 1/18=20,19=15,26=3/3(2);
 2/9=110/2;
 99//99;
 2/9=110/2;
 3/5=43,7=101,11=2,25=1,30=1,71=1,74=-13/1,2,3;
 4/5=5,16=3,69=1/1;
 5/5=2,38=5/2;
 7//1,2,3,16;
 1/18=20,19=15,26=3/3(-5);
 2/9=110/2;
 6/7=2,8=2,9=2,10=2,19=2,28=1/1;
 99/9=1/99;
 ------------------------------------------
 Optimization MeHgSH-gas-apfd-def2svp phase
 ------------------------------------------
 Symbolic Z-matrix:
 Charge =  0 Multiplicity = 1
 C                    -9.36254   1.35064   0.00033 
 Hg                   -7.22772   1.61449   0.00072 
 H                    -9.69627   1.11158   1.00277 
 H                    -9.62435   0.54307  -0.67273 
 H                    -9.83642   2.26673  -0.33154 
 S                    -4.79952   1.97511   0.00087 
 H                    -4.38272   0.68446  -0.00042 
 

 GradGradGradGradGradGradGradGradGradGradGradGradGradGradGradGradGradGrad
 Berny optimization.
 Initialization pass.
                           ----------------------------
                           !    Initial Parameters    !
                           ! (Angstroms and Degrees)  !
 --------------------------                            --------------------------
 ! Name  Definition              Value          Derivative Info.                !
 --------------------------------------------------------------------------------
 ! R1    R(1,2)                  2.1511         estimate D2E/DX2                !
 ! R2    R(1,3)                  1.0832         estimate D2E/DX2                !
 ! R3    R(1,4)                  1.0834         estimate D2E/DX2                !
 ! R4    R(1,5)                  1.0835         estimate D2E/DX2                !
 ! R5    R(2,6)                  2.4548         estimate D2E/DX2                !
 ! R6    R(6,7)                  1.3563         estimate D2E/DX2                !
 ! A1    A(2,1,3)              109.4308         estimate D2E/DX2                !
 ! A2    A(2,1,4)              109.3528         estimate D2E/DX2                !
 ! A3    A(2,1,5)              109.2942         estimate D2E/DX2                !
 ! A4    A(3,1,4)              109.6306         estimate D2E/DX2                !
 ! A5    A(3,1,5)              109.5904         estimate D2E/DX2                !
 ! A6    A(4,1,5)              109.5277         estimate D2E/DX2                !
 ! A7    A(2,6,7)               99.45           estimate D2E/DX2                !
 ! A8    L(1,2,6,7,-1)         181.402          estimate D2E/DX2                !
 ! A9    L(1,2,6,7,-2)         179.9809         estimate D2E/DX2                !
 ! D1    D(3,1,6,7)             79.2365         estimate D2E/DX2                !
 ! D2    D(4,1,6,7)            -41.2979         estimate D2E/DX2                !
 ! D3    D(5,1,6,7)           -161.092          estimate D2E/DX2                !
 --------------------------------------------------------------------------------
 Trust Radius=3.00D-01 FncErr=1.00D-07 GrdErr=1.00D-06 EigMax=2.50D+02 EigMin=1.00D-04
 Number of steps in this run=     28 maximum allowed number of steps=    100.
 GradGradGradGradGradGradGradGradGradGradGradGradGradGradGradGradGradGrad

                          Input orientation:                          
 ---------------------------------------------------------------------
 Center     Atomic      Atomic             Coordinates (Angstroms)
 Number     Number       Type             X           Y           Z
 ---------------------------------------------------------------------
      1          6           0       -9.362536    1.350640    0.000330
      2         80           0       -7.227724    1.614486    0.000717
      3          1           0       -9.696274    1.111583    1.002768
      4          1           0       -9.624354    0.543067   -0.672731
      5          1           0       -9.836422    2.266727   -0.331541
      6         16           0       -4.799524    1.975112    0.000869
      7          1           0       -4.382717    0.684464   -0.000421
 ---------------------------------------------------------------------
                    Distance matrix (angstroms):
                    1          2          3          4          5
     1  C    0.000000
     2  Hg   2.151055   0.000000
     3  H    1.083241   2.711228   0.000000
     4  H    1.083390   2.710223   1.770785   0.000000
     5  H    1.083477   2.709450   1.770418   1.769855   0.000000
     6  S    4.605545   2.454833   5.072243   5.077743   5.056271
     7  H    5.024180   2.993160   5.424270   5.286469   5.688242
                    6          7
     6  S    0.000000
     7  H    1.356282   0.000000
 Stoichiometry    CH4HgS
 Framework group  C1[X(CH4HgS)]
 Deg. of freedom    15
 Full point group                 C1      NOp   1
 Largest Abelian subgroup         C1      NOp   1
 Largest concise Abelian subgroup C1      NOp   1
                         Standard orientation:                         
 ---------------------------------------------------------------------
 Center     Atomic      Atomic             Coordinates (Angstroms)
 Number     Number       Type             X           Y           Z
 ---------------------------------------------------------------------
      1          6           0        2.354205    0.014033   -0.000067
      2         80           0        0.203206   -0.001455    0.000065
      3          1           0        2.713211    0.211910    1.002614
      4          1           0        2.707628    0.786648   -0.672296
      5          1           0        2.719139   -0.950320   -0.332888
      6         16           0       -2.250396   -0.079186   -0.000135
      7          1           0       -2.515331    1.250969   -0.000089
 ---------------------------------------------------------------------
 Rotational constants (GHZ):         103.1765803           1.8929681           1.8807276
 Standard basis: def2SVP (5D, 7F)
 There are    91 symmetry adapted cartesian basis functions of A   symmetry.
 There are    84 symmetry adapted basis functions of A   symmetry.
    84 basis functions,   155 primitive gaussians,    91 cartesian basis functions
    23 alpha electrons       23 beta electrons
       nuclear repulsion energy       146.6485017024 Hartrees.
 NAtoms=    7 NActive=    7 NUniq=    7 SFac= 1.00D+00 NAtFMM=   60 NAOKFM=F Big=F
 Integral buffers will be    131072 words long.
 Raffenetti 2 integral format.
 Two-electron integral symmetry is turned on.
 One-electron integrals computed using PRISM.
 PrsmSu:  requested number of processors reduced to:  13 ShMem   1 Linda.
   1 Symmetry operations used in ECPInt.
 ECPInt:  NShTT=     741 NPrTT=    2476 LenC2=     732 LenP2D=    2078.
 LDataN:  DoStor=T MaxTD1= 8 Len=  415
 NBasis=    84 RedAO= T EigKep=  8.92D-03  NBF=    84
 NBsUse=    84 1.00D-06 EigRej= -1.00D+00 NBFU=    84
 Defaulting to unpruned grid for atomic number  80.
 ExpMin= 5.64D-02 ExpMax= 9.18D+03 ExpMxC= 1.38D+03 IAcc=3 IRadAn=         5 AccDes= 0.00D+00
 Harris functional with IExCor= 1009 and IRadAn=       5 diagonalized for initial guess.
 HarFok:  IExCor= 1009 AccDes= 0.00D+00 IRadAn=         5 IDoV= 1 UseB2=F ITyADJ=14
 ICtDFT=  3500011 ScaDFX=  1.000000  1.000000  1.000000  1.000000
 Defaulting to unpruned grid for atomic number  80.
 FoFCou: FMM=F IPFlag=           0 FMFlag=      100000 FMFlg1=           0
         NFxFlg=           0 DoJE=T BraDBF=F KetDBF=T FulRan=T
         wScrn=  0.000000 ICntrl=       500 IOpCl=  0 I1Cent=   200000004 NGrid=           0
         NMat0=    1 NMatS0=      1 NMatT0=    0 NMatD0=    1 NMtDS0=    0 NMtDT0=    0
 Petite list used in FoFCou.
 Keep R1 ints in memory in canonical form, NReq=28287246.
 Requested convergence on RMS density matrix=1.00D-08 within 128 cycles.
 Requested convergence on MAX density matrix=1.00D-06.
 Requested convergence on             energy=1.00D-06.
 No special actions if energy rises.
 Integral accuracy reduced to 1.0D-05 until final iterations.
 Defaulting to unpruned grid for atomic number  80.
 Defaulting to unpruned grid for atomic number  80.
 Defaulting to unpruned grid for atomic number  80.
 Defaulting to unpruned grid for atomic number  80.
 Defaulting to unpruned grid for atomic number  80.
 Defaulting to unpruned grid for atomic number  80.
 Defaulting to unpruned grid for atomic number  80.
 Defaulting to unpruned grid for atomic number  80.
 Defaulting to unpruned grid for atomic number  80.
 Defaulting to unpruned grid for atomic number  80.
 Defaulting to unpruned grid for atomic number  80.
 Defaulting to unpruned grid for atomic number  80.
 Defaulting to unpruned grid for atomic number  80.
 Defaulting to unpruned grid for atomic number  80.
 Defaulting to unpruned grid for atomic number  80.
 Defaulting to unpruned grid for atomic number  80.
 Defaulting to unpruned grid for atomic number  80.
 Defaulting to unpruned grid for atomic number  80.
 Defaulting to unpruned grid for atomic number  80.
 Defaulting to unpruned grid for atomic number  80.
 Defaulting to unpruned grid for atomic number  80.
 Defaulting to unpruned grid for atomic number  80.
 Defaulting to unpruned grid for atomic number  80.
 Defaulting to unpruned grid for atomic number  80.
 Initial convergence to 1.0D-05 achieved.  Increase integral accuracy.
 SCF Done:  E(RPBE1PBE) =  -591.846852440     A.U. after   13 cycles
            NFock= 13  Conv=0.47D-08     -V/T= 2.2131

 **********************************************************************

            Population analysis using the SCF density.

 **********************************************************************

 Orbital symmetries:
       Occupied  (A) (A) (A) (A) (A) (A) (A) (A) (A) (A) (A) (A)
                 (A) (A) (A) (A) (A) (A) (A) (A) (A) (A) (A)
       Virtual   (A) (A) (A) (A) (A) (A) (A) (A) (A) (A) (A) (A)
                 (A) (A) (A) (A) (A) (A) (A) (A) (A) (A) (A) (A)
                 (A) (A) (A) (A) (A) (A) (A) (A) (A) (A) (A) (A)
                 (A) (A) (A) (A) (A) (A) (A) (A) (A) (A) (A) (A)
                 (A) (A) (A) (A) (A) (A) (A) (A) (A) (A) (A) (A)
                 (A)
 The electronic state is 1-A.
 Alpha  occ. eigenvalues --  -88.98172 -10.24593  -7.97990  -5.92165  -5.91881
 Alpha  occ. eigenvalues --   -5.91320  -4.53642  -2.66502  -2.66089  -2.65943
 Alpha  occ. eigenvalues --   -0.71712  -0.70109  -0.50917  -0.49992  -0.49848
 Alpha  occ. eigenvalues --   -0.48335  -0.48333  -0.41532  -0.41377  -0.38680
 Alpha  occ. eigenvalues --   -0.34781  -0.27584  -0.24241
 Alpha virt. eigenvalues --   -0.02092  -0.01003   0.00263   0.06189   0.08116
 Alpha virt. eigenvalues --    0.14387   0.14418   0.17186   0.21769   0.36023
 Alpha virt. eigenvalues --    0.41532   0.43363   0.46092   0.46194   0.48674
 Alpha virt. eigenvalues --    0.53274   0.54381   0.55269   0.56888   0.66966
 Alpha virt. eigenvalues --    0.68122   0.68835   0.68963   0.74326   0.74737
 Alpha virt. eigenvalues --    0.80133   0.82245   0.82715   0.84988   0.85860
 Alpha virt. eigenvalues --    0.87569   1.01744   1.06819   1.22262   1.24874
 Alpha virt. eigenvalues --    1.25603   1.53386   1.54528   1.55244   1.55865
 Alpha virt. eigenvalues --    1.55934   1.55983   1.55992   1.56095   1.58982
 Alpha virt. eigenvalues --    1.61551   1.78457   1.78464   1.92158   1.99074
 Alpha virt. eigenvalues --    1.99133   2.20613   2.22350   2.34546   2.44987
 Alpha virt. eigenvalues --    2.45002   2.75627   2.93993   2.94029  33.27944
 Alpha virt. eigenvalues --  121.44797
          Condensed to atoms (all electrons):
               1          2          3          4          5          6
     1  C    5.029796   0.257168   0.375744   0.376875   0.373197  -0.008936
     2  Hg   0.257168  19.176006  -0.027156  -0.026366  -0.024266   0.258636
     3  H    0.375744  -0.027156   0.590434  -0.014235  -0.012891   0.000192
     4  H    0.376875  -0.026366  -0.014235   0.588272  -0.011972   0.000207
     5  H    0.373197  -0.024266  -0.012891  -0.011972   0.587659   0.000232
     6  S   -0.008936   0.258636   0.000192   0.000207   0.000232  15.798252
     7  H    0.000263  -0.005326  -0.000011  -0.000027   0.000002   0.286884
               7
     1  C    0.000263
     2  Hg  -0.005326
     3  H   -0.000011
     4  H   -0.000027
     5  H    0.000002
     6  S    0.286884
     7  H    0.633152
 Mulliken charges:
               1
     1  C   -0.404107
     2  Hg   0.391305
     3  H    0.087921
     4  H    0.087245
     5  H    0.088040
     6  S   -0.335467
     7  H    0.085063
 Sum of Mulliken charges =  -0.00000
 Mulliken charges with hydrogens summed into heavy atoms:
               1
     1  C   -0.140901
     2  Hg   0.391305
     6  S   -0.250404
 Electronic spatial extent (au):  <R**2>=            631.8522
 Charge=             -0.0000 electrons
 Dipole moment (field-independent basis, Debye):
    X=              2.4998    Y=              0.9111    Z=             -0.0002  Tot=              2.6607
 Quadrupole moment (field-independent basis, Debye-Ang):
   XX=            -49.9762   YY=            -42.0090   ZZ=            -45.4529
   XY=             -2.9498   XZ=             -0.0048   YZ=              0.0007
 Traceless Quadrupole moment (field-independent basis, Debye-Ang):
   XX=             -4.1635   YY=              3.8037   ZZ=              0.3598
   XY=             -2.9498   XZ=             -0.0048   YZ=              0.0007
 Octapole moment (field-independent basis, Debye-Ang**2):
  XXX=             34.5678  YYY=              0.9541  ZZZ=              0.5427  XYY=              5.8701
  XXY=              8.2986  XXZ=             -0.0153  XZZ=             12.9810  YZZ=              0.5175
  YYZ=             -0.5199  XYZ=              0.0035
 Hexadecapole moment (field-independent basis, Debye-Ang**3):
 XXXX=           -792.0093 YYYY=            -58.5226 ZZZZ=            -59.9211 XXXY=            -24.0569
 XXXZ=             -0.0612 YYYX=             -6.1501 YYYZ=             -0.0218 ZZZX=              1.5191
 ZZZY=              0.0063 XXYY=           -126.8015 XXZZ=           -142.6834 YYZZ=            -20.2552
 XXYZ=              0.0152 YYXZ=             -1.5115 ZZXY=              0.0962
 N-N= 1.466485017024D+02 E-N=-1.653146559290D+03  KE= 4.878818417637D+02
 PrsmSu:  requested number of processors reduced to:  13 ShMem   1 Linda.
   1 Symmetry operations used in ECPInt.
 ECPInt:  NShTT=     741 NPrTT=    2476 LenC2=     732 LenP2D=    2078.
 LDataN:  DoStor=T MaxTD1= 9 Len=  602
 Calling FoFJK, ICntrl=      2127 FMM=F ISym2X=0 I1Cent= 0 IOpClX= 0 NMat=1 NMatS=1 NMatT=0.
 Defaulting to unpruned grid for atomic number  80.
 Defaulting to unpruned grid for atomic number  80.
 Defaulting to unpruned grid for atomic number  80.
 Defaulting to unpruned grid for atomic number  80.
 Defaulting to unpruned grid for atomic number  80.
 Defaulting to unpruned grid for atomic number  80.
 Defaulting to unpruned grid for atomic number  80.
 Defaulting to unpruned grid for atomic number  80.
 Defaulting to unpruned grid for atomic number  80.
 Defaulting to unpruned grid for atomic number  80.
 Defaulting to unpruned grid for atomic number  80.
 Defaulting to unpruned grid for atomic number  80.
 Defaulting to unpruned grid for atomic number  80.
 Defaulting to unpruned grid for atomic number  80.
 Defaulting to unpruned grid for atomic number  80.
 Defaulting to unpruned grid for atomic number  80.
 Defaulting to unpruned grid for atomic number  80.
 Defaulting to unpruned grid for atomic number  80.
 Defaulting to unpruned grid for atomic number  80.
 Defaulting to unpruned grid for atomic number  80.
 Defaulting to unpruned grid for atomic number  80.
 Defaulting to unpruned grid for atomic number  80.
 Defaulting to unpruned grid for atomic number  80.
 Defaulting to unpruned grid for atomic number  80.
 ***** Axes restored to original set *****
 -------------------------------------------------------------------
 Center     Atomic                   Forces (Hartrees/Bohr)
 Number     Number              X              Y              Z
 -------------------------------------------------------------------
      1        6           0.022002378    0.003187812    0.000138363
      2       80           0.003073455   -0.002367363   -0.000046734
      3        1          -0.002113862   -0.002210461    0.010276428
      4        1          -0.001261310   -0.008011994   -0.006972213
      5        1          -0.003712379    0.009410178   -0.003406828
      6       16          -0.013285658   -0.001172878    0.000013874
      7        1          -0.004702625    0.001164705   -0.000002890
 -------------------------------------------------------------------
 Cartesian Forces:  Max     0.022002378 RMS     0.007084484

 GradGradGradGradGradGradGradGradGradGradGradGradGradGradGradGradGradGrad
 Berny optimization.
 FormGI is forming the generalized inverse of G from B-inverse, IUseBI=4.
 Internal  Forces:  Max     0.017794438 RMS     0.007503081
 Search for a local minimum.
 Step number   1 out of a maximum of   28
 All quantities printed in internal units (Hartrees-Bohrs-Radians)
 Mixed Optimization -- RFO/linear search
 Second derivative matrix not updated -- first step.
 The second derivative matrix:
                          R1        R2        R3        R4        R5
           R1           0.13431
           R2           0.00000   0.35606
           R3           0.00000   0.00000   0.35588
           R4           0.00000   0.00000   0.00000   0.35578
           R5           0.00000   0.00000   0.00000   0.00000   0.13878
           R6           0.00000   0.00000   0.00000   0.00000   0.00000
           A1           0.00000   0.00000   0.00000   0.00000   0.00000
           A2           0.00000   0.00000   0.00000   0.00000   0.00000
           A3           0.00000   0.00000   0.00000   0.00000   0.00000
           A4           0.00000   0.00000   0.00000   0.00000   0.00000
           A5           0.00000   0.00000   0.00000   0.00000   0.00000
           A6           0.00000   0.00000   0.00000   0.00000   0.00000
           A7           0.00000   0.00000   0.00000   0.00000   0.00000
           A8           0.00000   0.00000   0.00000   0.00000   0.00000
           A9           0.00000   0.00000   0.00000   0.00000   0.00000
           D1           0.00000   0.00000   0.00000   0.00000   0.00000
           D2           0.00000   0.00000   0.00000   0.00000   0.00000
           D3           0.00000   0.00000   0.00000   0.00000   0.00000
                          R6        A1        A2        A3        A4
           R6           0.25161
           A1           0.00000   0.16000
           A2           0.00000   0.00000   0.16000
           A3           0.00000   0.00000   0.00000   0.16000
           A4           0.00000   0.00000   0.00000   0.00000   0.16000
           A5           0.00000   0.00000   0.00000   0.00000   0.00000
           A6           0.00000   0.00000   0.00000   0.00000   0.00000
           A7           0.00000   0.00000   0.00000   0.00000   0.00000
           A8           0.00000   0.00000   0.00000   0.00000   0.00000
           A9           0.00000   0.00000   0.00000   0.00000   0.00000
           D1           0.00000   0.00000   0.00000   0.00000   0.00000
           D2           0.00000   0.00000   0.00000   0.00000   0.00000
           D3           0.00000   0.00000   0.00000   0.00000   0.00000
                          A5        A6        A7        A8        A9
           A5           0.16000
           A6           0.00000   0.16000
           A7           0.00000   0.00000   0.16000
           A8           0.00000   0.00000   0.00000   0.00230
           A9           0.00000   0.00000   0.00000   0.00000   0.00230
           D1           0.00000   0.00000   0.00000   0.00000   0.00000
           D2           0.00000   0.00000   0.00000   0.00000   0.00000
           D3           0.00000   0.00000   0.00000   0.00000   0.00000
                          D1        D2        D3
           D1           0.00230
           D2           0.00000   0.00230
           D3           0.00000   0.00000   0.00230
 ITU=  0
     Eigenvalues ---    0.00230   0.00230   0.00230   0.10013   0.10129
     Eigenvalues ---    0.13431   0.13878   0.16000   0.16000   0.16000
     Eigenvalues ---    0.16000   0.25161   0.35578   0.35588   0.35606
 RFO step:  Lambda=-5.83151672D-03 EMin= 2.30000000D-03
 Linear search not attempted -- first point.
 Iteration  1 RMS(Cart)=  0.12542601 RMS(Int)=  0.00791239
 Iteration  2 RMS(Cart)=  0.01213941 RMS(Int)=  0.00064751
 Iteration  3 RMS(Cart)=  0.00001488 RMS(Int)=  0.00064744
 Iteration  4 RMS(Cart)=  0.00000001 RMS(Int)=  0.00064744
 Variable       Old X    -DE/DX   Delta X   Delta X   Delta X     New X
                                 (Linear)    (Quad)   (Total)
    R1        4.06490  -0.01509   0.00000  -0.10770  -0.10769   3.95721
    R2        2.04703   0.01065   0.00000   0.02943   0.02943   2.07646
    R3        2.04731   0.01061   0.00000   0.02933   0.02933   2.07664
    R4        2.04747   0.01062   0.00000   0.02938   0.02938   2.07685
    R5        4.63896  -0.01779   0.00000  -0.12305  -0.12306   4.51591
    R6        2.56300  -0.00255   0.00000  -0.00992  -0.00992   2.55308
    A1        1.90993  -0.00128   0.00000  -0.00770  -0.00833   1.90159
    A2        1.90857  -0.00156   0.00000  -0.00967  -0.00957   1.89899
    A3        1.90754  -0.00090   0.00000  -0.00522  -0.00482   1.90272
    A4        1.91342   0.00127   0.00000   0.00723   0.00650   1.91991
    A5        1.91271   0.00128   0.00000   0.00825   0.00773   1.92044
    A6        1.91162   0.00118   0.00000   0.00701   0.00822   1.91984
    A7        1.73573  -0.01055   0.00000  -0.06363  -0.06363   1.67210
    A8        3.16606   0.00162   0.00000   0.19506   0.19483   3.36089
    A9        3.14126   0.00003   0.00000   0.00244   0.00255   3.14381
    D1        1.38294   0.00015   0.00000   0.03538   0.03555   1.41849
    D2       -0.72078  -0.00014   0.00000  -0.02370  -0.02526  -0.74604
    D3       -2.81158   0.00001   0.00000  -0.01014  -0.00866  -2.82024
         Item               Value     Threshold  Converged?
 Maximum Force            0.017794     0.000450     NO 
 RMS     Force            0.007503     0.000300     NO 
 Maximum Displacement     0.367414     0.001800     NO 
 RMS     Displacement     0.128835     0.001200     NO 
 Predicted change in Energy=-3.130639D-03
 GradGradGradGradGradGradGradGradGradGradGradGradGradGradGradGradGradGrad

                          Input orientation:                          
 ---------------------------------------------------------------------
 Center     Atomic      Atomic             Coordinates (Angstroms)
 Number     Number       Type             X           Y           Z
 ---------------------------------------------------------------------
      1          6           0       -9.319365    1.348068    0.000087
      2         80           0       -7.226536    1.420059   -0.000286
      3          1           0       -9.668948    1.134768    1.019736
      4          1           0       -9.646547    0.552391   -0.683619
      5          1           0       -9.711131    2.317969   -0.337053
      6         16           0       -4.913307    2.019810    0.001557
      7          1           0       -4.443718    0.753013   -0.000432
 ---------------------------------------------------------------------
                    Distance matrix (angstroms):
                    1          2          3          4          5
     1  C    0.000000
     2  Hg   2.094066   0.000000
     3  H    1.098813   2.662181   0.000000
     4  H    1.098910   2.660121   1.800301   0.000000
     5  H    1.099023   2.663243   1.800728   1.800429   0.000000
     6  S    4.456971   2.389715   4.943290   5.002634   4.818991
     7  H    4.911825   2.861647   5.337556   5.251325   5.505273
                    6          7
     6  S    0.000000
     7  H    1.351034   0.000000
 Stoichiometry    CH4HgS
 Framework group  C1[X(CH4HgS)]
 Deg. of freedom    15
 Full point group                 C1      NOp   1
 Largest Abelian subgroup         C1      NOp   1
 Largest concise Abelian subgroup C1      NOp   1
                         Standard orientation:                         
 ---------------------------------------------------------------------
 Center     Atomic      Atomic             Coordinates (Angstroms)
 Number     Number       Type             X           Y           Z
 ---------------------------------------------------------------------
      1          6           0        2.276287   -0.203726    0.000563
      2         80           0        0.197392    0.047887   -0.000099
      3          1           0        2.654147   -0.049317    1.020744
      4          1           0        2.722551    0.533603   -0.681198
      5          1           0        2.513940   -1.221634   -0.338901
      6         16           0       -2.180655   -0.187962    0.000166
      7          1           0       -2.449270    1.136099    0.001216
 ---------------------------------------------------------------------
 Rotational constants (GHZ):          75.3043124           2.0153604           1.9880550
 Standard basis: def2SVP (5D, 7F)
 There are    91 symmetry adapted cartesian basis functions of A   symmetry.
 There are    84 symmetry adapted basis functions of A   symmetry.
    84 basis functions,   155 primitive gaussians,    91 cartesian basis functions
    23 alpha electrons       23 beta electrons
       nuclear repulsion energy       150.1307248184 Hartrees.
 NAtoms=    7 NActive=    7 NUniq=    7 SFac= 1.00D+00 NAtFMM=   60 NAOKFM=F Big=F
 Integral buffers will be    131072 words long.
 Raffenetti 2 integral format.
 Two-electron integral symmetry is turned on.
 One-electron integrals computed using PRISM.
 PrsmSu:  requested number of processors reduced to:  13 ShMem   1 Linda.
   1 Symmetry operations used in ECPInt.
 ECPInt:  NShTT=     741 NPrTT=    2476 LenC2=     734 LenP2D=    2089.
 LDataN:  DoStor=T MaxTD1= 8 Len=  415
 NBasis=    84 RedAO= T EigKep=  8.58D-03  NBF=    84
 NBsUse=    84 1.00D-06 EigRej= -1.00D+00 NBFU=    84
 Defaulting to unpruned grid for atomic number  80.
 Initial guess from the checkpoint file:  "ch3hgSH_gas_pbeo_def2svp.chk"
 B after Tr=     0.000000    0.000000    0.000000
         Rot=    0.999999   -0.000496    0.000007    0.001322 Ang=  -0.16 deg.
 ExpMin= 5.64D-02 ExpMax= 9.18D+03 ExpMxC= 1.38D+03 IAcc=2 IRadAn=         4 AccDes= 0.00D+00
 Harris functional with IExCor= 1009 and IRadAn=       4 diagonalized for initial guess.
 HarFok:  IExCor= 1009 AccDes= 0.00D+00 IRadAn=         4 IDoV= 1 UseB2=F ITyADJ=14
 ICtDFT=  3500011 ScaDFX=  1.000000  1.000000  1.000000  1.000000
 Defaulting to unpruned grid for atomic number  80.
 FoFCou: FMM=F IPFlag=           0 FMFlag=      100000 FMFlg1=           0
         NFxFlg=           0 DoJE=T BraDBF=F KetDBF=T FulRan=T
         wScrn=  0.000000 ICntrl=       500 IOpCl=  0 I1Cent=   200000004 NGrid=           0
         NMat0=    1 NMatS0=      1 NMatT0=    0 NMatD0=    1 NMtDS0=    0 NMtDT0=    0
 Petite list used in FoFCou.
 Keep R1 ints in memory in canonical form, NReq=28287246.
 Requested convergence on RMS density matrix=1.00D-08 within 128 cycles.
 Requested convergence on MAX density matrix=1.00D-06.
 Requested convergence on             energy=1.00D-06.
 No special actions if energy rises.
 Integral accuracy reduced to 1.0D-05 until final iterations.
 Defaulting to unpruned grid for atomic number  80.
 Defaulting to unpruned grid for atomic number  80.
 Defaulting to unpruned grid for atomic number  80.
 Defaulting to unpruned grid for atomic number  80.
 Defaulting to unpruned grid for atomic number  80.
 Defaulting to unpruned grid for atomic number  80.
 Defaulting to unpruned grid for atomic number  80.
 Defaulting to unpruned grid for atomic number  80.
 Defaulting to unpruned grid for atomic number  80.
 Defaulting to unpruned grid for atomic number  80.
 Defaulting to unpruned grid for atomic number  80.
 Defaulting to unpruned grid for atomic number  80.
 Defaulting to unpruned grid for atomic number  80.
 Defaulting to unpruned grid for atomic number  80.
 Defaulting to unpruned grid for atomic number  80.
 Defaulting to unpruned grid for atomic number  80.
 Defaulting to unpruned grid for atomic number  80.
 Defaulting to unpruned grid for atomic number  80.
 Defaulting to unpruned grid for atomic number  80.
 Defaulting to unpruned grid for atomic number  80.
 Defaulting to unpruned grid for atomic number  80.
 Defaulting to unpruned grid for atomic number  80.
 Defaulting to unpruned grid for atomic number  80.
 Defaulting to unpruned grid for atomic number  80.
 Initial convergence to 1.0D-05 achieved.  Increase integral accuracy.
 SCF Done:  E(RPBE1PBE) =  -591.848047272     A.U. after   12 cycles
            NFock= 12  Conv=0.43D-08     -V/T= 2.2130
 PrsmSu:  requested number of processors reduced to:  13 ShMem   1 Linda.
   1 Symmetry operations used in ECPInt.
 ECPInt:  NShTT=     741 NPrTT=    2476 LenC2=     734 LenP2D=    2089.
 LDataN:  DoStor=T MaxTD1= 9 Len=  602
 Calling FoFJK, ICntrl=      2127 FMM=F ISym2X=0 I1Cent= 0 IOpClX= 0 NMat=1 NMatS=1 NMatT=0.
 Defaulting to unpruned grid for atomic number  80.
 Defaulting to unpruned grid for atomic number  80.
 Defaulting to unpruned grid for atomic number  80.
 Defaulting to unpruned grid for atomic number  80.
 Defaulting to unpruned grid for atomic number  80.
 Defaulting to unpruned grid for atomic number  80.
 Defaulting to unpruned grid for atomic number  80.
 Defaulting to unpruned grid for atomic number  80.
 Defaulting to unpruned grid for atomic number  80.
 Defaulting to unpruned grid for atomic number  80.
 Defaulting to unpruned grid for atomic number  80.
 Defaulting to unpruned grid for atomic number  80.
 Defaulting to unpruned grid for atomic number  80.
 Defaulting to unpruned grid for atomic number  80.
 Defaulting to unpruned grid for atomic number  80.
 Defaulting to unpruned grid for atomic number  80.
 Defaulting to unpruned grid for atomic number  80.
 Defaulting to unpruned grid for atomic number  80.
 Defaulting to unpruned grid for atomic number  80.
 Defaulting to unpruned grid for atomic number  80.
 Defaulting to unpruned grid for atomic number  80.
 Defaulting to unpruned grid for atomic number  80.
 Defaulting to unpruned grid for atomic number  80.
 Defaulting to unpruned grid for atomic number  80.
 ***** Axes restored to original set *****
 -------------------------------------------------------------------
 Center     Atomic                   Forces (Hartrees/Bohr)
 Number     Number              X              Y              Z
 -------------------------------------------------------------------
      1        6           0.003196927   -0.007399211    0.000235394
      2       80           0.003113728    0.012631641   -0.000013889
      3        1          -0.001563730    0.000001172   -0.000657796
      4        1          -0.002662081    0.000687359    0.000598706
      5        1           0.000625916   -0.000037747   -0.000151303
      6       16          -0.003657626   -0.005784571    0.000006000
      7        1           0.000946866   -0.000098643   -0.000017111
 -------------------------------------------------------------------
 Cartesian Forces:  Max     0.012631641 RMS     0.003736790

 GradGradGradGradGradGradGradGradGradGradGradGradGradGradGradGradGradGrad
 Berny optimization.
 Using GEDIIS/GDIIS optimizer.
 FormGI is forming the generalized inverse of G from B-inverse, IUseBI=4.
 Internal  Forces:  Max     0.020012463 RMS     0.005121688
 Search for a local minimum.
 Step number   2 out of a maximum of   28
 All quantities printed in internal units (Hartrees-Bohrs-Radians)
 Mixed Optimization -- RFO/linear search
 Update second derivatives using D2CorX and points    1    2
 DE= -1.19D-03 DEPred=-3.13D-03 R= 3.82D-01
 Trust test= 3.82D-01 RLast= 2.72D-01 DXMaxT set to 3.00D-01
 The second derivative matrix:
                          R1        R2        R3        R4        R5
           R1           0.12127
           R2           0.01046   0.34778
           R3           0.01048  -0.00828   0.34759
           R4           0.01028  -0.00815  -0.00815   0.34776
           R5          -0.02332   0.01778   0.01776   0.01760   0.10432
           R6          -0.00182   0.00151   0.00152   0.00148  -0.00365
           A1           0.00268  -0.00169  -0.00167  -0.00173   0.00123
           A2           0.00633  -0.00417  -0.00413  -0.00423   0.00425
           A3          -0.00559   0.00391   0.00389   0.00392  -0.00551
           A4           0.00002  -0.00012  -0.00013  -0.00011   0.00088
           A5          -0.00194   0.00120   0.00118   0.00123  -0.00067
           A6          -0.00143   0.00084   0.00083   0.00087  -0.00016
           A7          -0.00645   0.00549   0.00552   0.00535  -0.01404
           A8          -0.03417   0.02335   0.02318   0.02351  -0.02942
           A9          -0.00009   0.00006   0.00006   0.00006  -0.00007
           D1          -0.00231   0.00157   0.00156   0.00158  -0.00195
           D2           0.00177  -0.00121  -0.00120  -0.00121   0.00149
           D3           0.00058  -0.00040  -0.00039  -0.00040   0.00049
                          R6        A1        A2        A3        A4
           R6           0.25138
           A1           0.00057   0.16119
           A2           0.00127   0.00216   0.16380
           A3          -0.00102  -0.00105  -0.00165   0.16037
           A4          -0.00004  -0.00042  -0.00083   0.00053   0.16010
           A5          -0.00042  -0.00097  -0.00178   0.00090   0.00033
           A6          -0.00033  -0.00088  -0.00164   0.00087   0.00028
           A7          -0.00076   0.00255   0.00556  -0.00431  -0.00028
           A8          -0.00649  -0.00849  -0.01423   0.00492   0.00372
           A9          -0.00002  -0.00002  -0.00004   0.00001   0.00001
           D1          -0.00044  -0.00059  -0.00100   0.00036   0.00026
           D2           0.00034   0.00045   0.00076  -0.00027  -0.00020
           D3           0.00011   0.00015   0.00025  -0.00009  -0.00006
                          A5        A6        A7        A8        A9
           A5           0.16079
           A6           0.00071   0.16064
           A7          -0.00192  -0.00153   0.15767
           A8           0.00712   0.00671  -0.02781   0.05095
           A9           0.00002   0.00002  -0.00007   0.00014   0.00230
           D1           0.00050   0.00047  -0.00189   0.00347   0.00001
           D2          -0.00038  -0.00036   0.00145  -0.00264  -0.00001
           D3          -0.00013  -0.00012   0.00048  -0.00087  -0.00000
                          D1        D2        D3
           D1           0.00255
           D2          -0.00019   0.00244
           D3          -0.00006   0.00005   0.00232
 ITU=  0  0
 Use linear search instead of GDIIS.
     Eigenvalues ---    0.00230   0.00230   0.00474   0.09122   0.10355
     Eigenvalues ---    0.11908   0.13811   0.15832   0.16000   0.16000
     Eigenvalues ---    0.17879   0.25170   0.34143   0.35582   0.35598
 RFO step:  Lambda=-1.43325886D-02 EMin= 2.29992457D-03
 Quartic linear search produced a step of -0.36859.
 Maximum step size (   0.300) exceeded in Quadratic search.
    -- Step size scaled by   0.356
 Iteration  1 RMS(Cart)=  0.14815197 RMS(Int)=  0.02569653
 Iteration  2 RMS(Cart)=  0.06641144 RMS(Int)=  0.00259482
 Iteration  3 RMS(Cart)=  0.00294745 RMS(Int)=  0.00160507
 Iteration  4 RMS(Cart)=  0.00000107 RMS(Int)=  0.00160507
 Iteration  5 RMS(Cart)=  0.00000000 RMS(Int)=  0.00160507
 Variable       Old X    -DE/DX   Delta X   Delta X   Delta X     New X
                                 (Linear)    (Quad)   (Total)
    R1        3.95721   0.00062   0.03969  -0.10729  -0.06760   3.88961
    R2        2.07646  -0.00011  -0.01085   0.03117   0.02032   2.09678
    R3        2.07664  -0.00008  -0.01081   0.03109   0.02028   2.09692
    R4        2.07685  -0.00021  -0.01083   0.03105   0.02022   2.09708
    R5        4.51591  -0.00409   0.04536  -0.13057  -0.08521   4.43069
    R6        2.55308   0.00042   0.00366  -0.01000  -0.00634   2.54674
    A1        1.90159   0.00254   0.00307  -0.00422  -0.00239   1.89920
    A2        1.89899   0.00482   0.00353  -0.00224   0.00145   1.90045
    A3        1.90272  -0.00306   0.00178  -0.01046  -0.00749   1.89523
    A4        1.91991  -0.00042  -0.00239   0.00820   0.00321   1.92312
    A5        1.92044  -0.00193  -0.00285   0.00371   0.00071   1.92116
    A6        1.91984  -0.00185  -0.00303   0.00467   0.00431   1.92415
    A7        1.67210   0.00218   0.02345  -0.06181  -0.03835   1.63375
    A8        3.36089  -0.02001  -0.07181  -0.23313  -0.30560   3.05529
    A9        3.14381  -0.00004  -0.00094  -0.00068  -0.00112   3.14270
    D1        1.41849  -0.00139  -0.01310  -0.04238  -0.05345   1.36504
    D2       -0.74604   0.00103   0.00931   0.03447   0.03938  -0.70666
    D3       -2.82024   0.00040   0.00319   0.00815   0.01363  -2.80661
         Item               Value     Threshold  Converged?
 Maximum Force            0.020012     0.000450     NO 
 RMS     Force            0.005122     0.000300     NO 
 Maximum Displacement     0.590310     0.001800     NO 
 RMS     Displacement     0.214277     0.001200     NO 
 Predicted change in Energy=-5.642558D-03
 GradGradGradGradGradGradGradGradGradGradGradGradGradGradGradGradGradGrad

                          Input orientation:                          
 ---------------------------------------------------------------------
 Center     Atomic      Atomic             Coordinates (Angstroms)
 Number     Number       Type             X           Y           Z
 ---------------------------------------------------------------------
      1          6           0       -9.261273    1.351073   -0.000540
      2         80           0       -7.238619    1.732437   -0.000116
      3          1           0       -9.576022    1.087767    1.030353
      4          1           0       -9.467588    0.507397   -0.691154
      5          1           0       -9.793307    2.263949   -0.339783
      6         16           0       -4.905723    1.966634    0.001533
      7          1           0       -4.687019    0.636822   -0.000302
 ---------------------------------------------------------------------
                    Distance matrix (angstroms):
                    1          2          3          4          5
     1  C    0.000000
     2  Hg   2.058292   0.000000
     3  H    1.109566   2.634562   0.000000
     4  H    1.109640   2.635632   1.819938   0.000000
     5  H    1.109725   2.631408   1.818761   1.820722   0.000000
     6  S    4.398833   2.344623   4.862362   4.839401   4.908500
     7  H    4.629682   2.776876   5.016768   4.831964   5.370007
                    6          7
     6  S    0.000000
     7  H    1.347678   0.000000
 Stoichiometry    CH4HgS
 Framework group  C1[X(CH4HgS)]
 Deg. of freedom    15
 Full point group                 C1      NOp   1
 Largest Abelian subgroup         C1      NOp   1
 Largest concise Abelian subgroup C1      NOp   1
                         Standard orientation:                         
 ---------------------------------------------------------------------
 Center     Atomic      Atomic             Coordinates (Angstroms)
 Number     Number       Type             X           Y           Z
 ---------------------------------------------------------------------
      1          6           0        2.244215    0.133963    0.000593
      2         80           0        0.192452   -0.029859   -0.000170
      3          1           0        2.584725    0.360876    1.031952
      4          1           0        2.539518    0.951796   -0.688787
      5          1           0        2.676180   -0.829921   -0.339736
      6         16           0       -2.152119   -0.014316    0.000394
      7          1           0       -2.227979    1.331225    0.000323
 ---------------------------------------------------------------------
 Rotational constants (GHZ):          91.1261645           2.0788442           2.0601125
 Standard basis: def2SVP (5D, 7F)
 There are    91 symmetry adapted cartesian basis functions of A   symmetry.
 There are    84 symmetry adapted basis functions of A   symmetry.
    84 basis functions,   155 primitive gaussians,    91 cartesian basis functions
    23 alpha electrons       23 beta electrons
       nuclear repulsion energy       152.4437398636 Hartrees.
 NAtoms=    7 NActive=    7 NUniq=    7 SFac= 1.00D+00 NAtFMM=   60 NAOKFM=F Big=F
 Integral buffers will be    131072 words long.
 Raffenetti 2 integral format.
 Two-electron integral symmetry is turned on.
 One-electron integrals computed using PRISM.
 PrsmSu:  requested number of processors reduced to:  13 ShMem   1 Linda.
   1 Symmetry operations used in ECPInt.
 ECPInt:  NShTT=     741 NPrTT=    2476 LenC2=     734 LenP2D=    2094.
 LDataN:  DoStor=T MaxTD1= 8 Len=  415
 NBasis=    84 RedAO= T EigKep=  8.32D-03  NBF=    84
 NBsUse=    84 1.00D-06 EigRej= -1.00D+00 NBFU=    84
 Defaulting to unpruned grid for atomic number  80.
 Initial guess from the checkpoint file:  "ch3hgSH_gas_pbeo_def2svp.chk"
 B after Tr=    -0.000000    0.000000   -0.000000
         Rot=    0.999999    0.001032    0.000005   -0.000605 Ang=   0.14 deg.
 ExpMin= 5.64D-02 ExpMax= 9.18D+03 ExpMxC= 1.38D+03 IAcc=2 IRadAn=         4 AccDes= 0.00D+00
 Harris functional with IExCor= 1009 and IRadAn=       4 diagonalized for initial guess.
 HarFok:  IExCor= 1009 AccDes= 0.00D+00 IRadAn=         4 IDoV= 1 UseB2=F ITyADJ=14
 ICtDFT=  3500011 ScaDFX=  1.000000  1.000000  1.000000  1.000000
 Defaulting to unpruned grid for atomic number  80.
 FoFCou: FMM=F IPFlag=           0 FMFlag=      100000 FMFlg1=           0
         NFxFlg=           0 DoJE=T BraDBF=F KetDBF=T FulRan=T
         wScrn=  0.000000 ICntrl=       500 IOpCl=  0 I1Cent=   200000004 NGrid=           0
         NMat0=    1 NMatS0=      1 NMatT0=    0 NMatD0=    1 NMtDS0=    0 NMtDT0=    0
 Petite list used in FoFCou.
 Keep R1 ints in memory in canonical form, NReq=28287246.
 Requested convergence on RMS density matrix=1.00D-08 within 128 cycles.
 Requested convergence on MAX density matrix=1.00D-06.
 Requested convergence on             energy=1.00D-06.
 No special actions if energy rises.
 Integral accuracy reduced to 1.0D-05 until final iterations.
 Defaulting to unpruned grid for atomic number  80.
 Defaulting to unpruned grid for atomic number  80.
 Defaulting to unpruned grid for atomic number  80.
 Defaulting to unpruned grid for atomic number  80.
 Defaulting to unpruned grid for atomic number  80.
 Defaulting to unpruned grid for atomic number  80.
 Defaulting to unpruned grid for atomic number  80.
 Defaulting to unpruned grid for atomic number  80.
 Defaulting to unpruned grid for atomic number  80.
 Defaulting to unpruned grid for atomic number  80.
 Defaulting to unpruned grid for atomic number  80.
 Defaulting to unpruned grid for atomic number  80.
 Defaulting to unpruned grid for atomic number  80.
 Defaulting to unpruned grid for atomic number  80.
 Defaulting to unpruned grid for atomic number  80.
 Defaulting to unpruned grid for atomic number  80.
 Defaulting to unpruned grid for atomic number  80.
 Defaulting to unpruned grid for atomic number  80.
 Defaulting to unpruned grid for atomic number  80.
 Defaulting to unpruned grid for atomic number  80.
 Defaulting to unpruned grid for atomic number  80.
 Defaulting to unpruned grid for atomic number  80.
 Defaulting to unpruned grid for atomic number  80.
 Defaulting to unpruned grid for atomic number  80.
 Initial convergence to 1.0D-05 achieved.  Increase integral accuracy.
 SCF Done:  E(RPBE1PBE) =  -591.848868862     A.U. after   13 cycles
            NFock= 13  Conv=0.33D-08     -V/T= 2.2130
 PrsmSu:  requested number of processors reduced to:  13 ShMem   1 Linda.
   1 Symmetry operations used in ECPInt.
 ECPInt:  NShTT=     741 NPrTT=    2476 LenC2=     734 LenP2D=    2094.
 LDataN:  DoStor=T MaxTD1= 9 Len=  602
 Calling FoFJK, ICntrl=      2127 FMM=F ISym2X=0 I1Cent= 0 IOpClX= 0 NMat=1 NMatS=1 NMatT=0.
 Defaulting to unpruned grid for atomic number  80.
 Defaulting to unpruned grid for atomic number  80.
 Defaulting to unpruned grid for atomic number  80.
 Defaulting to unpruned grid for atomic number  80.
 Defaulting to unpruned grid for atomic number  80.
 Defaulting to unpruned grid for atomic number  80.
 Defaulting to unpruned grid for atomic number  80.
 Defaulting to unpruned grid for atomic number  80.
 Defaulting to unpruned grid for atomic number  80.
 Defaulting to unpruned grid for atomic number  80.
 Defaulting to unpruned grid for atomic number  80.
 Defaulting to unpruned grid for atomic number  80.
 Defaulting to unpruned grid for atomic number  80.
 Defaulting to unpruned grid for atomic number  80.
 Defaulting to unpruned grid for atomic number  80.
 Defaulting to unpruned grid for atomic number  80.
 Defaulting to unpruned grid for atomic number  80.
 Defaulting to unpruned grid for atomic number  80.
 Defaulting to unpruned grid for atomic number  80.
 Defaulting to unpruned grid for atomic number  80.
 Defaulting to unpruned grid for atomic number  80.
 Defaulting to unpruned grid for atomic number  80.
 Defaulting to unpruned grid for atomic number  80.
 Defaulting to unpruned grid for atomic number  80.
 ***** Axes restored to original set *****
 -------------------------------------------------------------------
 Center     Atomic                   Forces (Hartrees/Bohr)
 Number     Number              X              Y              Z
 -------------------------------------------------------------------
      1        6          -0.010480191    0.002067398    0.000584928
      2       80           0.005797085   -0.004992419   -0.000104096
      3        1          -0.000485742    0.001467160   -0.007216718
      4        1          -0.000644977    0.005683981    0.004474486
      5        1          -0.000088793   -0.007529840    0.002249827
      6       16           0.005703874    0.005566236    0.000014846
      7        1           0.000198745   -0.002262516   -0.000003274
 -------------------------------------------------------------------
 Cartesian Forces:  Max     0.010480191 RMS     0.004422077

 GradGradGradGradGradGradGradGradGradGradGradGradGradGradGradGradGradGrad
 Berny optimization.
 Using GEDIIS/GDIIS optimizer.
 FormGI is forming the generalized inverse of G from B-inverse, IUseBI=4.
 Internal  Forces:  Max     0.011312672 RMS     0.005292740
 Search for a local minimum.
 Step number   3 out of a maximum of   28
 All quantities printed in internal units (Hartrees-Bohrs-Radians)
 Mixed Optimization -- RFO/linear search
 Update second derivatives using D2CorX and points    1    2    3
 DE= -8.22D-04 DEPred=-5.64D-03 R= 1.46D-01
 Trust test= 1.46D-01 RLast= 3.36D-01 DXMaxT set to 3.00D-01
 The second derivative matrix:
                          R1        R2        R3        R4        R5
           R1           0.12248
           R2           0.01385   0.34242
           R3           0.01370  -0.01352   0.34247
           R4           0.01382  -0.01359  -0.01348   0.34223
           R5          -0.02707   0.02451   0.02433   0.02446   0.09595
           R6          -0.00195   0.00239   0.00236   0.00238  -0.00468
           A1           0.00232  -0.00088  -0.00088  -0.00090   0.00024
           A2           0.00266  -0.00138  -0.00135  -0.00145   0.00045
           A3           0.00347  -0.00136  -0.00144  -0.00127   0.00200
           A4          -0.00300   0.00133   0.00136   0.00131  -0.00128
           A5          -0.00375   0.00199   0.00199   0.00199  -0.00187
           A6          -0.00155   0.00024   0.00026   0.00025   0.00051
           A7          -0.01907   0.01601   0.01598   0.01586  -0.02817
           A8           0.01978  -0.01303  -0.01332  -0.01256   0.02107
           A9           0.00003  -0.00002  -0.00002  -0.00002   0.00004
           D1           0.00085  -0.00053  -0.00055  -0.00050   0.00098
           D2          -0.00079   0.00049   0.00051   0.00046  -0.00086
           D3          -0.00012   0.00008   0.00008   0.00007  -0.00016
                          R6        A1        A2        A3        A4
           R6           0.25129
           A1           0.00045   0.16107
           A2           0.00057   0.00165   0.16342
           A3           0.00056   0.00002  -0.00215   0.16496
           A4          -0.00055  -0.00073  -0.00039  -0.00163   0.16102
           A5          -0.00072  -0.00115  -0.00145  -0.00056   0.00093
           A6          -0.00030  -0.00081  -0.00105  -0.00057   0.00075
           A7          -0.00324   0.00068   0.00347  -0.00415   0.00060
           A8           0.00337  -0.00153  -0.01279   0.02188  -0.00576
           A9           0.00000  -0.00001  -0.00004   0.00005  -0.00001
           D1           0.00013  -0.00019  -0.00094   0.00141  -0.00032
           D2          -0.00013   0.00013   0.00072  -0.00113   0.00027
           D3          -0.00002   0.00006   0.00023  -0.00031   0.00006
                          A5        A6        A7        A8        A9
           A5           0.16118
           A6           0.00099   0.16064
           A7          -0.00115   0.00052   0.14764
           A8           0.00044  -0.00191  -0.01136   0.08863
           A9           0.00001  -0.00000  -0.00003   0.00021   0.00230
           D1           0.00010  -0.00004  -0.00101   0.00601   0.00002
           D2          -0.00005   0.00005   0.00076  -0.00479  -0.00001
           D3          -0.00004  -0.00001   0.00026  -0.00134  -0.00000
                          D1        D2        D3
           D1           0.00272
           D2          -0.00033   0.00256
           D3          -0.00009   0.00007   0.00232
 ITU=  0  0  0
 Use linear search instead of GDIIS.
     Eigenvalues ---    0.00230   0.00230   0.03672   0.08352   0.10051
     Eigenvalues ---    0.11321   0.13872   0.15791   0.16000   0.16640
     Eigenvalues ---    0.18045   0.25154   0.32904   0.35583   0.35598
 RFO step:  Lambda=-1.64436352D-03 EMin= 2.29998966D-03
 Quartic linear search produced a step of -0.42061.
 Iteration  1 RMS(Cart)=  0.10952285 RMS(Int)=  0.00169798
 Iteration  2 RMS(Cart)=  0.00152076 RMS(Int)=  0.00071735
 Iteration  3 RMS(Cart)=  0.00000205 RMS(Int)=  0.00071735
 Iteration  4 RMS(Cart)=  0.00000000 RMS(Int)=  0.00071735
 Variable       Old X    -DE/DX   Delta X   Delta X   Delta X     New X
                                 (Linear)    (Quad)   (Total)
    R1        3.88961   0.01118   0.02843   0.10247   0.13091   4.02052
    R2        2.09678  -0.00692  -0.00855  -0.03002  -0.03857   2.05820
    R3        2.09692  -0.00699  -0.00853  -0.03006  -0.03858   2.05833
    R4        2.09708  -0.00684  -0.00851  -0.02988  -0.03838   2.05869
    R5        4.43069   0.00621   0.03584   0.09756   0.13340   4.56410
    R6        2.54674   0.00226   0.00267   0.01078   0.01344   2.56019
    A1        1.89920   0.00270   0.00101   0.01288   0.01439   1.91359
    A2        1.90045   0.00103  -0.00061   0.00540   0.00458   1.90503
    A3        1.89523   0.00533   0.00315   0.01892   0.02144   1.91667
    A4        1.92312  -0.00311  -0.00135  -0.01115  -0.01150   1.91162
    A5        1.92116  -0.00250  -0.00030  -0.00849  -0.00875   1.91241
    A6        1.92415  -0.00320  -0.00181  -0.01655  -0.01971   1.90444
    A7        1.63375  -0.00044   0.01613   0.03853   0.05466   1.68841
    A8        3.05529   0.01131   0.12854  -0.08741   0.04142   3.09671
    A9        3.14270   0.00004   0.00047   0.00123   0.00148   3.14418
    D1        1.36504   0.00075   0.02248  -0.01837   0.00332   1.36836
    D2       -0.70666  -0.00069  -0.01656   0.00936  -0.00527  -0.71193
    D3       -2.80661  -0.00007  -0.00573   0.01174   0.00488  -2.80173
         Item               Value     Threshold  Converged?
 Maximum Force            0.011313     0.000450     NO 
 RMS     Force            0.005293     0.000300     NO 
 Maximum Displacement     0.331258     0.001800     NO 
 RMS     Displacement     0.109787     0.001200     NO 
 Predicted change in Energy=-2.008150D-03
 GradGradGradGradGradGradGradGradGradGradGradGradGradGradGradGradGradGrad

                          Input orientation:                          
 ---------------------------------------------------------------------
 Center     Atomic      Atomic             Coordinates (Angstroms)
 Number     Number       Type             X           Y           Z
 ---------------------------------------------------------------------
      1          6           0       -9.323410    1.354071    0.001902
      2         80           0       -7.222830    1.691862    0.000310
      3          1           0       -9.652367    1.098694    1.008295
      4          1           0       -9.553799    0.533047   -0.675774
      5          1           0       -9.841974    2.250968   -0.334983
      6         16           0       -4.823446    1.967938    0.001424
      7          1           0       -4.511724    0.649498   -0.001184
 ---------------------------------------------------------------------
                    Distance matrix (angstroms):
                    1          2          3          4          5
     1  C    0.000000
     2  Hg   2.127567   0.000000
     3  H    1.089155   2.696392   0.000000
     4  H    1.089222   2.689491   1.779259   0.000000
     5  H    1.089414   2.699062   1.779911   1.774947   0.000000
     6  S    4.541642   2.415215   5.008778   4.989365   5.037748
     7  H    4.862998   2.904586   5.258044   5.088335   5.575633
                    6          7
     6  S    0.000000
     7  H    1.354792   0.000000
 Stoichiometry    CH4HgS
 Framework group  C1[X(CH4HgS)]
 Deg. of freedom    15
 Full point group                 C1      NOp   1
 Largest Abelian subgroup         C1      NOp   1
 Largest concise Abelian subgroup C1      NOp   1
                         Standard orientation:                         
 ---------------------------------------------------------------------
 Center     Atomic      Atomic             Coordinates (Angstroms)
 Number     Number       Type             X           Y           Z
 ---------------------------------------------------------------------
      1          6           0        2.322895    0.091457    0.001663
      2         80           0        0.198243   -0.019842   -0.000176
      3          1           0        2.677128    0.310627    1.008014
      4          1           0        2.639828    0.882863   -0.676301
      5          1           0        2.742654   -0.855877   -0.334766
      6         16           0       -2.216906   -0.037836    0.000611
      7          1           0       -2.385896    1.306371   -0.002585
 ---------------------------------------------------------------------
 Rotational constants (GHZ):          98.6624026           1.9514967           1.9370881
 Standard basis: def2SVP (5D, 7F)
 There are    91 symmetry adapted cartesian basis functions of A   symmetry.
 There are    84 symmetry adapted basis functions of A   symmetry.
    84 basis functions,   155 primitive gaussians,    91 cartesian basis functions
    23 alpha electrons       23 beta electrons
       nuclear repulsion energy       148.4776451355 Hartrees.
 NAtoms=    7 NActive=    7 NUniq=    7 SFac= 1.00D+00 NAtFMM=   60 NAOKFM=F Big=F
 Integral buffers will be    131072 words long.
 Raffenetti 2 integral format.
 Two-electron integral symmetry is turned on.
 One-electron integrals computed using PRISM.
 PrsmSu:  requested number of processors reduced to:  13 ShMem   1 Linda.
   1 Symmetry operations used in ECPInt.
 ECPInt:  NShTT=     741 NPrTT=    2476 LenC2=     734 LenP2D=    2084.
 LDataN:  DoStor=T MaxTD1= 8 Len=  415
 NBasis=    84 RedAO= T EigKep=  8.76D-03  NBF=    84
 NBsUse=    84 1.00D-06 EigRej= -1.00D+00 NBFU=    84
 Defaulting to unpruned grid for atomic number  80.
 Initial guess from the checkpoint file:  "ch3hgSH_gas_pbeo_def2svp.chk"
 B after Tr=    -0.000000    0.000000   -0.000000
         Rot=    1.000000    0.000769   -0.000025   -0.000516 Ang=   0.11 deg.
 ExpMin= 5.64D-02 ExpMax= 9.18D+03 ExpMxC= 1.38D+03 IAcc=2 IRadAn=         4 AccDes= 0.00D+00
 Harris functional with IExCor= 1009 and IRadAn=       4 diagonalized for initial guess.
 HarFok:  IExCor= 1009 AccDes= 0.00D+00 IRadAn=         4 IDoV= 1 UseB2=F ITyADJ=14
 ICtDFT=  3500011 ScaDFX=  1.000000  1.000000  1.000000  1.000000
 Defaulting to unpruned grid for atomic number  80.
 FoFCou: FMM=F IPFlag=           0 FMFlag=      100000 FMFlg1=           0
         NFxFlg=           0 DoJE=T BraDBF=F KetDBF=T FulRan=T
         wScrn=  0.000000 ICntrl=       500 IOpCl=  0 I1Cent=   200000004 NGrid=           0
         NMat0=    1 NMatS0=      1 NMatT0=    0 NMatD0=    1 NMtDS0=    0 NMtDT0=    0
 Petite list used in FoFCou.
 Keep R1 ints in memory in canonical form, NReq=28287246.
 Requested convergence on RMS density matrix=1.00D-08 within 128 cycles.
 Requested convergence on MAX density matrix=1.00D-06.
 Requested convergence on             energy=1.00D-06.
 No special actions if energy rises.
 Integral accuracy reduced to 1.0D-05 until final iterations.
 Defaulting to unpruned grid for atomic number  80.
 Defaulting to unpruned grid for atomic number  80.
 Defaulting to unpruned grid for atomic number  80.
 Defaulting to unpruned grid for atomic number  80.
 Defaulting to unpruned grid for atomic number  80.
 Defaulting to unpruned grid for atomic number  80.
 Defaulting to unpruned grid for atomic number  80.
 Defaulting to unpruned grid for atomic number  80.
 Defaulting to unpruned grid for atomic number  80.
 Defaulting to unpruned grid for atomic number  80.
 Defaulting to unpruned grid for atomic number  80.
 Defaulting to unpruned grid for atomic number  80.
 Defaulting to unpruned grid for atomic number  80.
 Defaulting to unpruned grid for atomic number  80.
 Defaulting to unpruned grid for atomic number  80.
 Defaulting to unpruned grid for atomic number  80.
 Defaulting to unpruned grid for atomic number  80.
 Defaulting to unpruned grid for atomic number  80.
 Defaulting to unpruned grid for atomic number  80.
 Defaulting to unpruned grid for atomic number  80.
 Defaulting to unpruned grid for atomic number  80.
 Defaulting to unpruned grid for atomic number  80.
 Defaulting to unpruned grid for atomic number  80.
 Defaulting to unpruned grid for atomic number  80.
 Initial convergence to 1.0D-05 achieved.  Increase integral accuracy.
 SCF Done:  E(RPBE1PBE) =  -591.848861467     A.U. after   11 cycles
            NFock= 11  Conv=0.76D-08     -V/T= 2.2131
 PrsmSu:  requested number of processors reduced to:  13 ShMem   1 Linda.
   1 Symmetry operations used in ECPInt.
 ECPInt:  NShTT=     741 NPrTT=    2476 LenC2=     734 LenP2D=    2084.
 LDataN:  DoStor=T MaxTD1= 9 Len=  602
 Calling FoFJK, ICntrl=      2127 FMM=F ISym2X=0 I1Cent= 0 IOpClX= 0 NMat=1 NMatS=1 NMatT=0.
 Defaulting to unpruned grid for atomic number  80.
 Defaulting to unpruned grid for atomic number  80.
 Defaulting to unpruned grid for atomic number  80.
 Defaulting to unpruned grid for atomic number  80.
 Defaulting to unpruned grid for atomic number  80.
 Defaulting to unpruned grid for atomic number  80.
 Defaulting to unpruned grid for atomic number  80.
 Defaulting to unpruned grid for atomic number  80.
 Defaulting to unpruned grid for atomic number  80.
 Defaulting to unpruned grid for atomic number  80.
 Defaulting to unpruned grid for atomic number  80.
 Defaulting to unpruned grid for atomic number  80.
 Defaulting to unpruned grid for atomic number  80.
 Defaulting to unpruned grid for atomic number  80.
 Defaulting to unpruned grid for atomic number  80.
 Defaulting to unpruned grid for atomic number  80.
 Defaulting to unpruned grid for atomic number  80.
 Defaulting to unpruned grid for atomic number  80.
 Defaulting to unpruned grid for atomic number  80.
 Defaulting to unpruned grid for atomic number  80.
 Defaulting to unpruned grid for atomic number  80.
 Defaulting to unpruned grid for atomic number  80.
 Defaulting to unpruned grid for atomic number  80.
 Defaulting to unpruned grid for atomic number  80.
 ***** Axes restored to original set *****
 -------------------------------------------------------------------
 Center     Atomic                   Forces (Hartrees/Bohr)
 Number     Number              X              Y              Z
 -------------------------------------------------------------------
      1        6           0.013887778    0.004457273   -0.000300953
      2       80           0.001487891   -0.005481879    0.000107373
      3        1          -0.001286916   -0.001263724    0.006316372
      4        1          -0.000404643   -0.005227604   -0.004321243
      5        1          -0.002809821    0.005657590   -0.001773964
      6       16          -0.007932499    0.000863073   -0.000022366
      7        1          -0.002941789    0.000995270   -0.000005219
 -------------------------------------------------------------------
 Cartesian Forces:  Max     0.013887778 RMS     0.004633131

 GradGradGradGradGradGradGradGradGradGradGradGradGradGradGradGradGradGrad
 Berny optimization.
 Using GEDIIS/GDIIS optimizer.
 FormGI is forming the generalized inverse of G from B-inverse, IUseBI=4.
 Internal  Forces:  Max     0.010589516 RMS     0.004969295
 Search for a local minimum.
 Step number   4 out of a maximum of   28
 All quantities printed in internal units (Hartrees-Bohrs-Radians)
 Mixed Optimization -- RFO/linear search
 Update second derivatives using D2CorX and points    1    2    4    3
 DE=  7.40D-06 DEPred=-2.01D-03 R=-3.68D-03
 Trust test=-3.68D-03 RLast= 2.14D-01 DXMaxT set to 1.50D-01
 The second derivative matrix:
                          R1        R2        R3        R4        R5
           R1           0.14980
           R2          -0.00424   0.35402
           R3          -0.00494  -0.00158   0.35476
           R4          -0.00433  -0.00194  -0.00149   0.35393
           R5           0.00360   0.00493   0.00430   0.00484   0.12568
           R6           0.00252  -0.00056  -0.00069  -0.00058   0.00059
           A1           0.00421  -0.00244  -0.00253  -0.00248   0.00417
           A2           0.00607  -0.00436  -0.00438  -0.00443   0.00576
           A3           0.00325  -0.00087  -0.00108  -0.00081   0.00357
           A4          -0.00427   0.00231   0.00242   0.00231  -0.00423
           A5          -0.00548   0.00357   0.00365   0.00359  -0.00567
           A6          -0.00329   0.00152   0.00163   0.00154  -0.00320
           A7           0.00024   0.00316   0.00297   0.00301  -0.01025
           A8           0.00102  -0.00049  -0.00090  -0.00005   0.00777
           A9           0.00034  -0.00021  -0.00022  -0.00021   0.00028
           D1          -0.00079   0.00062   0.00060   0.00065  -0.00041
           D2          -0.00043   0.00019   0.00022   0.00017  -0.00056
           D3           0.00114  -0.00076  -0.00076  -0.00076   0.00089
                          R6        A1        A2        A3        A4
           R6           0.25200
           A1           0.00067   0.16056
           A2           0.00114   0.00147   0.16322
           A3           0.00031  -0.00086  -0.00241   0.16365
           A4          -0.00065  -0.00023  -0.00020  -0.00085   0.16055
           A5          -0.00092  -0.00060  -0.00102   0.00007   0.00045
           A6          -0.00045  -0.00027  -0.00099   0.00049   0.00021
           A7           0.00025   0.00369   0.00690  -0.00243  -0.00169
           A8          -0.00038  -0.00644  -0.01777   0.01872  -0.00204
           A9           0.00006   0.00004  -0.00000   0.00013  -0.00006
           D1          -0.00018  -0.00051  -0.00121   0.00110  -0.00005
           D2          -0.00005   0.00023   0.00083  -0.00111   0.00021
           D3           0.00022   0.00028   0.00039  -0.00004  -0.00014
                          A5        A6        A7        A8        A9
           A5           0.16054
           A6           0.00049   0.16000
           A7          -0.00381  -0.00249   0.15813
           A8           0.00474   0.00296  -0.01880   0.09135
           A9          -0.00004  -0.00006   0.00005   0.00030   0.00230
           D1           0.00035   0.00032  -0.00171   0.00629   0.00002
           D2          -0.00012  -0.00005   0.00099  -0.00512  -0.00002
           D3          -0.00023  -0.00025   0.00071  -0.00129   0.00000
                          D1        D2        D3
           D1           0.00274
           D2          -0.00034   0.00258
           D3          -0.00011   0.00006   0.00234
 ITU= -1  0  0  0
 Use linear search instead of GDIIS.
     Eigenvalues ---    0.00230   0.00230   0.07157   0.09921   0.11201
     Eigenvalues ---    0.11879   0.14351   0.15790   0.16000   0.16952
     Eigenvalues ---    0.18151   0.25210   0.35220   0.35587   0.35604
 RFO step:  Lambda=-1.09867820D-03 EMin= 2.29996112D-03
 Quartic linear search produced a step of -0.50976.
 Iteration  1 RMS(Cart)=  0.06180003 RMS(Int)=  0.00144219
 Iteration  2 RMS(Cart)=  0.00208242 RMS(Int)=  0.00013934
 Iteration  3 RMS(Cart)=  0.00000149 RMS(Int)=  0.00013933
 Iteration  4 RMS(Cart)=  0.00000000 RMS(Int)=  0.00013933
 Variable       Old X    -DE/DX   Delta X   Delta X   Delta X     New X
                                 (Linear)    (Quad)   (Total)
    R1        4.02052  -0.00984  -0.06673   0.00068  -0.06605   3.95447
    R2        2.05820   0.00652   0.01966   0.00060   0.02026   2.07847
    R3        2.05833   0.00671   0.01967   0.00083   0.02050   2.07883
    R4        2.05869   0.00654   0.01957   0.00061   0.02017   2.07887
    R5        4.56410  -0.01059  -0.06800  -0.02969  -0.09769   4.46641
    R6        2.56019  -0.00165  -0.00685   0.00124  -0.00561   2.55457
    A1        1.91359  -0.00094  -0.00733   0.00993   0.00253   1.91612
    A2        1.90503  -0.00144  -0.00234   0.01123   0.00893   1.91396
    A3        1.91667   0.00018  -0.01093   0.00560  -0.00517   1.91151
    A4        1.91162   0.00035   0.00586  -0.00819  -0.00252   1.90911
    A5        1.91241   0.00084   0.00446  -0.00980  -0.00528   1.90713
    A6        1.90444   0.00102   0.01005  -0.00881   0.00150   1.90594
    A7        1.68841  -0.00674  -0.02786  -0.01477  -0.04263   1.64578
    A8        3.09671   0.00714  -0.02111   0.09818   0.07699   3.17370
    A9        3.14418  -0.00009  -0.00075  -0.01259  -0.01331   3.13087
    D1        1.36836   0.00080  -0.00169   0.01900   0.01750   1.38586
    D2       -0.71193  -0.00034   0.00269  -0.01318  -0.01086  -0.72279
    D3       -2.80173  -0.00044  -0.00249  -0.00624  -0.00856  -2.81029
         Item               Value     Threshold  Converged?
 Maximum Force            0.010590     0.000450     NO 
 RMS     Force            0.004969     0.000300     NO 
 Maximum Displacement     0.143614     0.001800     NO 
 RMS     Displacement     0.062519     0.001200     NO 
 Predicted change in Energy=-1.417280D-03
 GradGradGradGradGradGradGradGradGradGradGradGradGradGradGradGradGradGrad

                          Input orientation:                          
 ---------------------------------------------------------------------
 Center     Atomic      Atomic             Coordinates (Angstroms)
 Number     Number       Type             X           Y           Z
 ---------------------------------------------------------------------
      1          6           0       -9.290875    1.349933    0.000874
      2         80           0       -7.215231    1.615865    0.005421
      3          1           0       -9.637295    1.106773    1.016058
      4          1           0       -9.557463    0.529794   -0.682105
      5          1           0       -9.779359    2.275751   -0.337415
      6         16           0       -4.881741    1.991386   -0.000839
      7          1           0       -4.567587    0.676576   -0.002003
 ---------------------------------------------------------------------
                    Distance matrix (angstroms):
                    1          2          3          4          5
     1  C    0.000000
     2  Hg   2.092616   0.000000
     3  H    1.099879   2.673380   0.000000
     4  H    1.100071   2.671758   1.795281   0.000000
     5  H    1.100088   2.669783   1.794040   1.793436   0.000000
     6  S    4.455550   2.363520   4.942865   4.945983   4.917398
     7  H    4.771045   2.809331   5.188783   5.038149   5.461907
                    6          7
     6  S    0.000000
     7  H    1.351821   0.000000
 Stoichiometry    CH4HgS
 Framework group  C1[X(CH4HgS)]
 Deg. of freedom    15
 Full point group                 C1      NOp   1
 Largest Abelian subgroup         C1      NOp   1
 Largest concise Abelian subgroup C1      NOp   1
                         Standard orientation:                         
 ---------------------------------------------------------------------
 Center     Atomic      Atomic             Coordinates (Angstroms)
 Number     Number       Type             X           Y           Z
 ---------------------------------------------------------------------
      1          6           0        2.284677    0.004792   -0.005231
      2         80           0        0.192077   -0.000028    0.001278
      3          1           0        2.659689    0.201577    1.009843
      4          1           0        2.650892    0.786084   -0.687598
      5          1           0        2.653481   -0.974336   -0.345064
      6         16           0       -2.170039   -0.081388   -0.002862
      7          1           0       -2.317650    1.262350   -0.002244
 ---------------------------------------------------------------------
 Rotational constants (GHZ):         100.6056639           2.0296195           2.0152692
 Standard basis: def2SVP (5D, 7F)
 There are    91 symmetry adapted cartesian basis functions of A   symmetry.
 There are    84 symmetry adapted basis functions of A   symmetry.
    84 basis functions,   155 primitive gaussians,    91 cartesian basis functions
    23 alpha electrons       23 beta electrons
       nuclear repulsion energy       150.9679580691 Hartrees.
 NAtoms=    7 NActive=    7 NUniq=    7 SFac= 1.00D+00 NAtFMM=   60 NAOKFM=F Big=F
 Integral buffers will be    131072 words long.
 Raffenetti 2 integral format.
 Two-electron integral symmetry is turned on.
 One-electron integrals computed using PRISM.
 PrsmSu:  requested number of processors reduced to:  13 ShMem   1 Linda.
   1 Symmetry operations used in ECPInt.
 ECPInt:  NShTT=     741 NPrTT=    2476 LenC2=     734 LenP2D=    2090.
 LDataN:  DoStor=T MaxTD1= 8 Len=  415
 NBasis=    84 RedAO= T EigKep=  8.47D-03  NBF=    84
 NBsUse=    84 1.00D-06 EigRej= -1.00D+00 NBFU=    84
 Defaulting to unpruned grid for atomic number  80.
 Lowest energy guess from the checkpoint file:  "ch3hgSH_gas_pbeo_def2svp.chk"
 B after Tr=    -0.000000    0.000000   -0.000000
         Rot=    0.999999    0.001081   -0.000055    0.000386 Ang=   0.13 deg.
 B after Tr=     0.000000   -0.000000   -0.000000
         Rot=    1.000000   -0.000000   -0.000000   -0.000000 Ang=   0.00 deg.
 Keep R1 ints in memory in canonical form, NReq=28287246.
 Requested convergence on RMS density matrix=1.00D-08 within 128 cycles.
 Requested convergence on MAX density matrix=1.00D-06.
 Requested convergence on             energy=1.00D-06.
 No special actions if energy rises.
 Integral accuracy reduced to 1.0D-05 until final iterations.
 Defaulting to unpruned grid for atomic number  80.
 Defaulting to unpruned grid for atomic number  80.
 Defaulting to unpruned grid for atomic number  80.
 Defaulting to unpruned grid for atomic number  80.
 Defaulting to unpruned grid for atomic number  80.
 Defaulting to unpruned grid for atomic number  80.
 Defaulting to unpruned grid for atomic number  80.
 Defaulting to unpruned grid for atomic number  80.
 Defaulting to unpruned grid for atomic number  80.
 Defaulting to unpruned grid for atomic number  80.
 Defaulting to unpruned grid for atomic number  80.
 Defaulting to unpruned grid for atomic number  80.
 Defaulting to unpruned grid for atomic number  80.
 Defaulting to unpruned grid for atomic number  80.
 Defaulting to unpruned grid for atomic number  80.
 Defaulting to unpruned grid for atomic number  80.
 Defaulting to unpruned grid for atomic number  80.
 Defaulting to unpruned grid for atomic number  80.
 Defaulting to unpruned grid for atomic number  80.
 Defaulting to unpruned grid for atomic number  80.
 Defaulting to unpruned grid for atomic number  80.
 Defaulting to unpruned grid for atomic number  80.
 Defaulting to unpruned grid for atomic number  80.
 Defaulting to unpruned grid for atomic number  80.
 Initial convergence to 1.0D-05 achieved.  Increase integral accuracy.
 SCF Done:  E(RPBE1PBE) =  -591.850267763     A.U. after   11 cycles
            NFock= 11  Conv=0.16D-08     -V/T= 2.2130
 PrsmSu:  requested number of processors reduced to:  13 ShMem   1 Linda.
   1 Symmetry operations used in ECPInt.
 ECPInt:  NShTT=     741 NPrTT=    2476 LenC2=     734 LenP2D=    2090.
 LDataN:  DoStor=T MaxTD1= 9 Len=  602
 Calling FoFJK, ICntrl=      2127 FMM=F ISym2X=0 I1Cent= 0 IOpClX= 0 NMat=1 NMatS=1 NMatT=0.
 Defaulting to unpruned grid for atomic number  80.
 Defaulting to unpruned grid for atomic number  80.
 Defaulting to unpruned grid for atomic number  80.
 Defaulting to unpruned grid for atomic number  80.
 Defaulting to unpruned grid for atomic number  80.
 Defaulting to unpruned grid for atomic number  80.
 Defaulting to unpruned grid for atomic number  80.
 Defaulting to unpruned grid for atomic number  80.
 Defaulting to unpruned grid for atomic number  80.
 Defaulting to unpruned grid for atomic number  80.
 Defaulting to unpruned grid for atomic number  80.
 Defaulting to unpruned grid for atomic number  80.
 Defaulting to unpruned grid for atomic number  80.
 Defaulting to unpruned grid for atomic number  80.
 Defaulting to unpruned grid for atomic number  80.
 Defaulting to unpruned grid for atomic number  80.
 Defaulting to unpruned grid for atomic number  80.
 Defaulting to unpruned grid for atomic number  80.
 Defaulting to unpruned grid for atomic number  80.
 Defaulting to unpruned grid for atomic number  80.
 Defaulting to unpruned grid for atomic number  80.
 Defaulting to unpruned grid for atomic number  80.
 Defaulting to unpruned grid for atomic number  80.
 Defaulting to unpruned grid for atomic number  80.
 ***** Axes restored to original set *****
 -------------------------------------------------------------------
 Center     Atomic                   Forces (Hartrees/Bohr)
 Number     Number              X              Y              Z
 -------------------------------------------------------------------
      1        6           0.001011262   -0.000510045    0.000316383
      2       80          -0.001585616    0.000797801   -0.000298321
      3        1          -0.000154003    0.000089775   -0.000592540
      4        1          -0.000203710    0.000499350    0.000374752
      5        1           0.000082470   -0.000481257    0.000085593
      6       16           0.000519074   -0.000371909    0.000119579
      7        1           0.000330523   -0.000023713   -0.000005445
 -------------------------------------------------------------------
 Cartesian Forces:  Max     0.001585616 RMS     0.000543986

 GradGradGradGradGradGradGradGradGradGradGradGradGradGradGradGradGradGrad
 Berny optimization.
 Using GEDIIS/GDIIS optimizer.
 FormGI is forming the generalized inverse of G from B-inverse, IUseBI=4.
[...]
 This molecule is an asymmetric top.
 Rotational symmetry number  1.
 Rotational temperatures (Kelvin)      4.84832     0.09731     0.09662
 Rotational constants (GHZ):         101.02256     2.02758     2.01333
 Zero-point vibrational energy     117381.9 (Joules/Mol)
                                   28.05496 (Kcal/Mol)
 Warning -- explicit consideration of   5 degrees of freedom as
           vibrations may cause significant error
 Vibrational temperatures:     57.84   181.92   182.44   484.46   775.19
          (Kelvin)            953.83  1117.66  1125.39  1743.62  2060.24
                             2061.48  3897.36  4417.62  4586.59  4589.95
 
 Zero-point correction=                           0.044708 (Hartree/Particle)
 Thermal correction to Energy=                    0.050666
 Thermal correction to Enthalpy=                  0.051610
 Thermal correction to Gibbs Free Energy=         0.013348
 Sum of electronic and zero-point Energies=           -591.805592
 Sum of electronic and thermal Energies=              -591.799635
 Sum of electronic and thermal Enthalpies=            -591.798690
 Sum of electronic and thermal Free Energies=         -591.836953
 
                     E (Thermal)             CV                S
                      KCal/Mol        Cal/Mol-Kelvin    Cal/Mol-Kelvin
 Total                   31.793             17.222             80.530
 Electronic               0.000              0.000              0.000
 Translational            0.889              2.981             42.449
 Rotational               0.889              2.981             24.170
 Vibrational             30.016             11.260             13.911
 Vibration     1          0.594              1.981              5.249
 Vibration     2          0.611              1.927              3.000
 Vibration     3          0.611              1.926              2.994
 Vibration     4          0.717              1.602              1.228
 Vibration     5          0.894              1.164              0.568
                       Q            Log10(Q)             Ln(Q)
 Total Bot       0.725239D-06         -6.139519        -14.136764
 Total V=0       0.266016D+15         14.424908         33.214577
 Vib (Bot)       0.109238D-18        -18.961628        -43.660762
 Vib (Bot)    1  0.514626D+01          0.711492          1.638270
 Vib (Bot)    2  0.161379D+01          0.207846          0.478583
 Vib (Bot)    3  0.160900D+01          0.206556          0.475612
 Vib (Bot)    4  0.552599D+00         -0.257590         -0.593123
 Vib (Bot)    5  0.294396D+00         -0.531069         -1.222831
 Vib (V=0)       0.400681D+02          1.602798          3.690579
 Vib (V=0)    1  0.567049D+01          0.753621          1.735276
 Vib (V=0)    2  0.218947D+01          0.340339          0.783659
 Vib (V=0)    3  0.218490D+01          0.339431          0.781568
 Vib (V=0)    4  0.124523D+01          0.095249          0.219319
 Vib (V=0)    5  0.108023D+01          0.033517          0.077176
 Electronic      0.100000D+01          0.000000          0.000000
 Translational   0.155345D+09          8.191296         18.861156
 Rotational      0.427379D+05          4.630813         10.662842
 ***** Axes restored to original set *****
 -------------------------------------------------------------------
 Center     Atomic                   Forces (Hartrees/Bohr)
 Number     Number              X              Y              Z
 -------------------------------------------------------------------
      1        6          -0.000005146    0.000005647    0.000005964
      2       80           0.000002068   -0.000000167   -0.000001813
      3        1          -0.000001058   -0.000001835   -0.000002308
      4        1           0.000002774   -0.000002050   -0.000001388
      5        1           0.000000278   -0.000001928   -0.000001023
      6       16           0.000000350   -0.000000057    0.000000303
      7        1           0.000000733    0.00000039
 GradGradGradGradGradGradGradGradGradGradGradGradGradGradGradGradGradGrad
 Berny optimization.
 Internal  Forces:  Max     0.000006176 RMS     0.000002211
 Search for a local minimum.
 Step number   1 out of a maximum o
 GradGradGradGradGradGradGradGradGradGradGradGradGradGradGradGradGradGrad
 Berny optimization.
 Internal  Forces:  Max     0.000006176 RMS     0.000002211
 Search for a local minimum.
 Step number   1 out of a maximum of    2
 All quantities printed in internal units (Hartrees-Bohrs-Radians)
 Second derivative matrix not updated -- analytic derivatives used.
 The second derivative matrix:
                          R1        R2        R3        R4        R5
           R1           0.15331
           R2           0.00178   0.35111
           R3           0.00183  -0.00010   0.35064
           R4           0.00178  -0.00012  -0.00010   0.35112
           R5           0.00258   0.00052   0.00060   0.00052   0.12374
           R6          -0.00016   0.00001  -0.00003   0.00001   0.00020
           A1           0.01097  -0.00044  -0.00595  -0.00568   0.00283
           A2           0.01064  -0.00584   0.00002  -0.00584   0.00259
           A3           0.01097  -0.00568  -0.00595  -0.00044   0.00283
           A4          -0.01105   0.00740   0.00751  -0.00278  -0.00285
           A5          -0.01093   0.00747  -0.00293   0.00747  -0.00266
           A6          -0.01105  -0.00278   0.00751   0.00740  -0.00285
           A7           0.00188  -0.00000   0.00020  -0.00000   0.01200
           A8          -0.00073   0.00096  -0.00200   0.00096  -0.00070
           A9           0.00000   0.00080   0.00000  -0.00080   0.00000
           D1          -0.00023   0.00003   0.00517  -0.00514  -0.00019
           D2           0.00000  -0.00524  -0.00000   0.00524   0.00000
           D3           0.00023   0.00514  -0.00517  -0.00003   0.00019
                          R6        A1        A2        A3        A4
           R6           0.27135
           A1          -0.00012   0.07434
           A2           0.00020  -0.01218   0.07519
           A3          -0.00012  -0.01122  -0.01218   0.07434
           A4           0.00002  -0.02744  -0.02568   0.00140   0.05882
           A5           0.00000  -0.02565   0.00002  -0.02565  -0.00360
           A6           0.00002   0.00139  -0.02568  -0.02744  -0.00276
           A7           0.00587  -0.00309   0.00664  -0.00308   0.00033
           A8          -0.00046   0.01211  -0.02414   0.01208  -0.00553
           A9          -0.00000   0.00835   0.00001  -0.00836   0.00172
           D1          -0.00000   0.00107   0.00358  -0.00457   0.01908
           D2          -0.00000  -0.00528  -0.00000   0.00528  -0.01896
           D3           0.00000   0.00457  -0.00358  -0.00107   0.00030
                          A5        A6        A7        A8        A9
           A5           0.05905
           A6          -0.00360   0.05883
           A7          -0.00110   0.00033   0.10804
           A8           0.01088  -0.00555  -0.02540   0.10646
           A9          -0.00000  -0.00171   0.00000   0.00000   0.02254
           D1          -0.01876  -0.00030  -0.00157   0.00324   0.00151
           D2           0.00000   0.01896  -0.00000   0.00000  -0.00285
           D3           0.01876  -0.01908   0.00157  -0.00324   0.00151
                          D1        D2        D3
           D1           0.01782
           D2          -0.00890   0.01743
           D3          -0.00856  -0.00890   0.01782
 ITU=  0
       Iteration  1 RMS(Cart)=   Iteration  1 RMS(Cart)=  0.00007389 RMS(Int)=  0.00000000
 Iteration  2 RMS(Cart)=  0.00000000 RMS(Int)=  0.00000000
 V Itera Iteration  2 RMS(Cart)=  0.00000001 RMS(Int)=  0.00000000
 Variable       Old X    -DE/DX   Delta X   Delta X   Delta X     New X
                               Iteration  1 RMS(Cart)=  0.00008790 RMS(Int)=  0.00000001
 Iteration  2 RMS(Cart)=  0.00000001 RMS(Int)=  0.00000000
 Variable       Old X    -DE/DX   Delta X   Delta X   Delta X     New X
                                 (Linear)    (Quad)   (Total)
    R1        3.94832   0.00000   0.00000   0.00002   0.00002   3.94834
    R2        2.07734  -0.00000   0.00000  -0.00001  -0.00001   2.07734
    R3        2.07779   0.00000   0.00000   0.00001   0.00001   2.07780
    R4        2.07734  -0.00000   0.00000  -0.00000  -0.00000   2.07734
    R5        4.47169   0.00000   0.00000   0.00001   0.00001   4.47170
    R6        2.55484   0.00000   0.00000   0.00000   0.00000   2.55484
    A1        1.91833   0.00000   0.00000   0.00005   0.00005   1.91839
    A2        1.91412  -0.00001   0.00000  -0.00009  -0.00009   1.91403
    A3        1.91838   0.00000   0.00000   0.00002   0.00002   1.91839
    A4        1.90309  -0.00000   0.00000  -0.00000  -0.00000   1.90308
    A5        1.90665   0.00000   0.00000   0.00003   0.00003   1.90667
    A6        1.90310   0.00000   0.00000  -0.00001  -0.00001   1.90309
    A7        1.64974   0.00000   0.00000   0.00001   0.00001   1.64975
    A8        3.16065  -0.00000   0.00000  -0.00003  -0.00003   3.16061
    A9        3.14157   0.00000   0.00000   0.00002   0.00002   3.14159
    D1        2.09597  -0.00000   0.00000  -0.00021  -0.00021   2.09576
    D2        0.00079  -0.00000   0.00000  -0.00018  -0.00018   0.00061
    D3       -2.09443   0.00000   0.00000  -0.00012  -0.00012  -2.09455
         Item               Value     Threshold  Converged?
 Maximum Force            0.000006     0.000450     YES
 RMS     Force            0.000002     0.000300     YES
 Maximum Displacement     0.000168     0.001800     YES
 RMS     Displacement     0.000088     0.001200     YES
 Predicted change in Energy=-5.862666D-10
 Optimization completed.
    -- Stationary point found.
                           ----------------------------
                           !   Optimized Parameters   !
                           ! (Angstroms and Degrees)  !
 --------------------------                            --------------------------
 ! Name  Definition              Value          Derivative Info.                !
 --------------------------------------------------------------------------------
 ! R1    R(1,2)                  2.0894         -DE/DX =    0.0                 !
 ! R2    R(1,3)                  1.0993         -DE/DX =    0.0                 !
 ! R3    R(1,4)                  1.0995         -DE/DX =    0.0                 !
 ! R4    R(1,5)                  1.0993         -DE/DX =    0.0                 !
 ! R5    R(2,6)                  2.3663         -DE/DX =    0.0                 !
 ! R6    R(6,7)                  1.352          -DE/DX =    0.0                 !
 ! A1    A(2,1,3)              109.9124         -DE/DX =    0.0                 !
 ! A2    A(2,1,4)              109.671          -DE/DX =    0.0                 !
 ! A3    A(2,1,5)              109.9148         -DE/DX =    0.0                 !
 ! A4    A(3,1,4)              109.0389         -DE/DX =    0.0                 !
 ! A5    A(3,1,5)              109.2428         -DE/DX =    0.0                 !
 ! A6    A(4,1,5)              109.0395         -DE/DX =    0.0                 !
 ! A7    A(2,6,7)               94.523          -DE/DX =    0.0                 !
 ! A8    L(1,2,6,7,-1)         181.0917         -DE/DX =    0.0                 !
 ! A9    L(1,2,6,7,-2)         179.999          -DE/DX =    0.0                 !
 ! D1    D(3,1,6,7)            120.0903         -DE/DX =    0.0                 !
 ! D2    D(4,1,6,7)              0.0455         -DE/DX =    0.0                 !
 ! D3    D(5,1,6,7)           -120.0018         -DE/DX =    0.0                 !
 --------------------------------------------------------------------------------
 GradGradGradGradGradGradGradGradGradGradGradGradGradGradGradGradGradGrad


 ----------------------------------------------------------------------

 Electric dipole moment (input orientation):
 (Debye = 10**-18 statcoulomb cm , SI units = C m)
                  (au)            (Debye)         (10**-30 SI)
   Tot        0.954217D+00      0.242538D+01      0.809019D+01
   x         -0.837674D+00     -0.212916D+01     -0.710210D+01
   y         -0.391763D+00     -0.995761D+00     -0.332150D+01
   z         -0.235274D+00     -0.598006D+00     -0.199473D+01

 Dipole polarizability, Alpha (input orientation).
 (esu units = cm**3 , SI units = C**2 m**2 J**-1)
 Alpha(0;0):
               (au)            (10**-24 esu)      (10**-40 SI)
   iso        0.592716D+02      0.878315D+01      0.977257D+01
   aniso      0.517994D+02      0.767588D+01      0.854057D+01
   xx         0.932910D+02      0.138243D+02      0.153816D+02
   yx         0.408773D+01      0.605739D+00      0.673975D+00
   yy         0.433163D+02      0.641882D+01      0.714190D+01
   zx         0.210793D+01      0.312363D+00      0.347550D+00
   zy         0.203481D+01      0.301528D+00      0.335495D+00
   zz         0.412076D+02      0.610634D+01      0.679422D+01

 ----------------------------------------------------------------------

 Dipole orientation:
     6         -7.44656430         -7.28132816         14.35875615
    80         -6.30108590         -6.43846595         10.67545927
     1         -9.38695999         -6.60710241         14.66800827
     1         -6.18022869         -6.34773059         15.71596372
     1         -7.37748167         -9.33421211         14.66897317
    16         -5.06800170         -5.53118318          6.47399061
     1         -3.08495062         -4.07217521          7.15662967

 Electric dipole moment (dipole orientation):
 (Debye = 10**-18 statcoulomb cm , SI units = C m)
                  (au)            (Debye)         (10**-30 SI)
   Tot        0.954217D+00      0.242538D+01      0.809019D+01
   x          0.000000D+00      0.000000D+00      0.000000D+00
   y          0.000000D+00      0.000000D+00      0.000000D+00
   z          0.954217D+00      0.242538D+01      0.809019D+01

 Dipole polarizability, Alpha (dipole orientation).
 (esu units = cm**3 , SI units = C**2 m**2 J**-1)
 Alpha(0;0):
               (au)            (10**-24 esu)      (10**-40 SI)
   iso        0.592716D+02      0.878315D+01      0.977257D+01
   aniso      0.517994D+02      0.767588D+01      0.854057D+01
   xx         0.476929D+02      0.706737D+01      0.786350D+01
   yx         0.568368D+01      0.842234D+00      0.937112D+00
   yy         0.441499D+02      0.654234D+01      0.727934D+01
   zx        -0.145043D+02     -0.214931D+01     -0.239143D+01
   zy        -0.106720D+02     -0.158143D+01     -0.175957D+01
   zz         0.859721D+02      0.127397D+02      0.141749D+02

 ----------------------------------------------------------------------

 Test job not archived.
 1\1\GINC-GRANADO-COMPUTE-13\Freq\RPBE1PBE\def2SVP\C1H4Hg1S1\ROOT\21-Ma
 y-2023\0\\#N Geom=AllCheck Guess=TCheck SCRF=Check Test GenChk RPBE1PB
 E/def2SVP Freq\\Optimization MeHgSH-gas-apfd-def2svp phase\\0,1\C,-9.2
 887812654,1.3518594199,0.0038848213\Hg,-7.2173397739,1.5911165693,0.13
 54542914\H,-9.7213047199,1.2730112369,1.0114205538\H,-9.5205893953,0.4
 360100715,-0.5586366838\H,-9.7330257447,2.2133381714,-0.5146895127\S,-
 4.8776280503,1.9000670178,0.3079312151\H,-4.5708820505,0.7806765133,-0
 .3853736851\\Version=EM64L-G16RevA.03\State=1-A\HF=-591.8503007\RMSD=1
 .002e-09\RMSF=2.497e-06\ZeroPoint=0.0447084\Thermal=0.0506661\Dipole=-
 0.8376744,-0.3917626,-0.2352738\DipoleDeriv=-0.1967502,0.00069,0.00062
 85,0.0332638,-0.1896392,-0.0111921,0.0206971,-0.0109438,-0.1788363,1.2
 841418,0.0814971,0.0427154,0.0316362,0.3231171,0.0083179,0.0119522,0.0
 079312,0.3140468,-0.0938555,-0.0156801,0.0838927,-0.0205576,0.0717402,
 0.0124712,0.0315276,0.0078426,-0.0106933,-0.0485072,-0.0792541,-0.0479
 071,-0.0392944,-0.0077636,-0.0495915,-0.0232761,-0.0492853,0.0430241,-
 0.0953705,0.0675813,-0.0504007,0.018575,0.0147235,0.0362812,-0.0312374
 ,0.0404986,0.0478393,-0.8912076,-0.0376537,-0.0189956,-0.0262358,-0.21
 16504,0.0828271,-0.0119468,0.082917,-0.2942432,0.0415491,-0.0171804,-0
 .0099332,0.0026128,-0.0005276,-0.0791138,0.0022835,-0.0789602,0.078862
 5\Polar=93.2909961,4.0877266,43.3163158,2.1079278,2.0348102,41.2076163
 \Quadrupole=-2.6663979,1.7821983,0.8841996,-2.274576,-1.380899,0.93469
 \PG=C01 [X(C1H4Hg1S1)]\NImag=0\\0.32124394,-0.02545465,0.53108112,-0.0
 1403195,-0.00265467,0.53417015,-0.12545938,-0.01038317,-0.00567329,0.2
 6831378,-0.01123585,-0.03404415,-0.00189386,0.02455586,0.05229424,-0.0
 0619950,-0.00190081,-0.03195818,0.01337849,0.00749946,0.04435894,-0.07
 757375,-0.00712900,0.11785057,-0.00870179,-0.00100873,0.01563131,0.082
 37298,-0.00658936,-0.04497082,0.02079513,-0.00086337,-0.00114081,0.001
 63039,0.00773920,0.04369580,0.10207160,0.01882265,-0.28443370,-0.00227
 260,-0.00031144,0.00441759,-0.11093804,-0.02033642,0.30357078,-0.04359
 616,-0.06074356,-0.03742459,-0.00558205,-0.01543986,-0.00947955,0.0017
 9643,0.01123227,0.00582537,0.04858058,-0.04701944,-0.24335523,-0.12296
 732,0.00023353,0.00052726,0.00099432,0.00068974,0.00297658,0.00381892,
 0.05237936,0.25701446,-0.02896867,-0.12286172,-0.11867421,0.00017844,0
 .00111426,-0.00040420,-0.00738224,-0.02376590,-0.01189373,0.03222315,0
 .13210573,0.12310644,-0.08014348,0.10422989,-0.06041982,-0.00886015,0.
 01341031,-0.00781788,0.00454116,-0.01104406,0.00584563,0.00189531,-0.0
 0630767,0.00390859,0.08497736,0.09035749,-0.21879227,0.10558343,-0.002
 53606,0.00389884,-0.00283708,0.00027085,-0.00073581,-0.00183702,0.0105
 3521,-0.01686999,0.01373526,-0.09793204,0.23337040,-0.05285650,0.10745
 327,-0.10804722,0.00034934,-0.00101642,-0.00046269,-0.01281334,0.02189
 266,-0.01073790,0.00757478,-0.01363920,0.00785434,0.05790422,-0.115015
 83,0.11129500,0.00554448,0.00271167,0.00169441,-0.11362191,-0.02249069
 ,-0.01309344,-0.00290919,-0.00044191,-0.00073381,-0.00193154,-0.000122
 49,-0.00006000,-0.00288095,-0.00086406,-0.00003455,0.14016510,0.000090
 27,0.01057706,0.00133250,-0.01030097,-0.02276681,-0.00634105,-0.000629
 03,0.00013720,-0.00015527,0.00219901,-0.00033423,-0.00024171,-0.002390
 65,-0.00086020,0.00039998,-0.02926285,0.19999715,0.00007778,0.00131351
 ,0.00922630,-0.00556970,-0.00624645,-0.01617537,-0.00235029,-0.0001177
 4,-0.00094832,0.00137078,-0.00022439,-0.00011733,0.00052502,0.00034875
 ,0.00002224,-0.01911453,0.12062912,0.07953292,-0.00001564,-0.00323119,
 -0.00199534,-0.00608851,0.01220897,0.00758057,0.00047415,-0.00003277,0
 .00020186,-0.00116257,0.00014696,0.00010073,0.00047076,0.00016861,-0.0
 0012395,-0.02436599,0.04029421,0.02506095,0.03068781,-0.00014846,-0.00
 049570,-0.00019521,-0.00070582,0.00123144,0.00095476,0.00006697,0.0000
 3787,-0.00000142,-0.00016243,0.00004116,-0.00008590,0.00003421,-0.0000
 1098,-0.00007447,0.05047033,-0.18675016,-0.11570280,-0.04955480,0.1859
 4636,-0.00009275,-0.00017223,-0.00028314,-0.00039067,0.00085445,0.0002
 2391,0.00000204,-0.00009812,0.00002529,-0.00008995,-0.00008806,0.00012
 870,0.00005424,0.00002249,0.00007623,0.03134191,-0.11562357,-0.0715404
 3,-0.03082482,0.11510505,0.07136945\\0.00000515,-0.00000565,-0.0000059
 6,-0.00000207,0.00000017,0.00000181,0.00000106,0.00000184,0.00000231,-
 0.00000277,0.00000205,0.00000139,-0.00000028,0.00000193,0.00000102,-0.
 00000035,0.00000006,-0.00000030,-0.00000073,-0.00000039,-0.00000026\\\
 @


 I KNOW YOU BELIEVE YOU UNDERSTAND WHAT YOU THINK I SAID,
 BUT I AM NOT SURE YOU REALIZE THAT WHAT YOU HEARD IS NOT WHAT I MEANT.
 Job cpu time:       0 days  0 hours 23 minutes 21.7 seconds.
 Elapsed time:       0 days  0 hours 17 minutes 13.9 seconds.
 File lengths (MBytes):  RWF=     11 Int=      0 D2E=      0 Chk=      2 Scr=      1
 Normal termination of Gaussian 16 at Sun May 21 00:51:46 2023.
ile lengths (MBytes):  RWF=     11 Int=      0 D2E=      0 Chk=      2 Scr=      1
 Normal termination of Gaussian 16 at Sun May 21 00:47:23 2023.
 17.6 seconds.
 File lengths (MBytes):  RWF=     11 Int=      0 D2E=      0 Chk=      2 Scr=      1
 Normal termination of Gaussian 16 at Sun May 21 00:45:58 2023.
