 Entering Gaussian System, Link 0=g16
 Input=input.gjf
 Output=input.log
 Initial command:
 /opt/ohpc/pub/apps/gaussian/G16x86_64_legacy_CPUs_linux_binary/g16/l1.exe "/tmp/Gau-62301.inp" -scrdir="/tmp/"
 Entering Link 1 = /opt/ohpc/pub/apps/gaussian/G16x86_64_legacy_CPUs_linux_binary/g16/l1.exe PID=     62349.
  
 Copyright (c) 1988,1990,1992,1993,1995,1998,2003,2009,2016,
            Gaussian, Inc.  All Rights Reserved.
  
 This is part of the Gaussian(R) 16 program.  It is based on
 the Gaussian(R) 09 system (copyright 2009, Gaussian, Inc.),
 the Gaussian(R) 03 system (copyright 2003, Gaussian, Inc.),
 the Gaussian(R) 98 system (copyright 1998, Gaussian, Inc.),
 the Gaussian(R) 94 system (copyright 1995, Gaussian, Inc.),
 the Gaussian 92(TM) system (copyright 1992, Gaussian, Inc.),
 the Gaussian 90(TM) system (copyright 1990, Gaussian, Inc.),
 the Gaussian 88(TM) system (copyright 1988, Gaussian, Inc.),
 the Gaussian 86(TM) system (copyright 1986, Carnegie Mellon
 University), and the Gaussian 82(TM) system (copyright 1983,
 Carnegie Mellon University). Gaussian is a federally registered
 trademark of Gaussian, Inc.
  
 This software contains proprietary and confidential information,
 including trade secrets, belonging to Gaussian, Inc.
  
 This software is provided under written license and may be
 used, copied, transmitted, or stored only in accord with that
 written license.
  
 The following legend is applicable only to US Government
 contracts under FAR:
  
                    RESTRICTED RIGHTS LEGEND
  
 Use, reproduction and disclosure by the US Government is
 subject to restrictions as set forth in subparagraphs (a)
 and (c) of the Commercial Computer Software - Restricted
 Rights clause in FAR 52.227-19.
  
 Gaussian, Inc.
 340 Quinnipiac St., Bldg. 40, Wallingford CT 06492
  
  
 ---------------------------------------------------------------
 Warning -- This program may not be used in any manner that
 competes with the business of Gaussian, Inc. or will provide
 assistance to any competitor of Gaussian, Inc.  The licensee
 of this program is prohibited from giving any competitor of
 Gaussian, Inc. access to this program.  By using this program,
 the user acknowledges that Gaussian, Inc. is engaged in the
 business of creating and licensing software in the field of
 computational chemistry and represents and warrants to the
 licensee that it is not a competitor of Gaussian, Inc. and that
 it will not use this program in any manner prohibited above.
 ---------------------------------------------------------------
  

 Cite this work as:
 Gaussian 16, Revision A.03,
 M. J. Frisch, G. W. Trucks, H. B. Schlegel, G. E. Scuseria, 
 M. A. Robb, J. R. Cheeseman, G. Scalmani, V. Barone, 
 G. A. Petersson, H. Nakatsuji, X. Li, M. Caricato, A. V. Marenich, 
 J. Bloino, B. G. Janesko, R. Gomperts, B. Mennucci, H. P. Hratchian, 
 J. V. Ortiz, A. F. Izmaylov, J. L. Sonnenberg, D. Williams-Young, 
 F. Ding, F. Lipparini, F. Egidi, J. Goings, B. Peng, A. Petrone, 
 T. Henderson, D. Ranasinghe, V. G. Zakrzewski, J. Gao, N. Rega, 
 G. Zheng, W. Liang, M. Hada, M. Ehara, K. Toyota, R. Fukuda, 
 J. Hasegawa, M. Ishida, T. Nakajima, Y. Honda, O. Kitao, H. Nakai, 
 T. Vreven, K. Throssell, J. A. Montgomery, Jr., J. E. Peralta, 
 F. Ogliaro, M. J. Bearpark, J. J. Heyd, E. N. Brothers, K. N. Kudin, 
 V. N. Staroverov, T. A. Keith, R. Kobayashi, J. Normand, 
 K. Raghavachari, A. P. Rendell, J. C. Burant, S. S. Iyengar, 
 J. Tomasi, M. Cossi, J. M. Millam, M. Klene, C. Adamo, R. Cammi, 
 J. W. Ochterski, R. L. Martin, K. Morokuma, O. Farkas, 
 J. B. Foresman, and D. J. Fox, Gaussian, Inc., Wallingford CT, 2016.
 
 ******************************************
 Gaussian 16:  EM64L-G16RevA.03 25-Dec-2016
                 2-Apr-2023 
 ******************************************
 %NProcShared=24
 Will use up to   24 processors via shared memory.
 %Chk=sh_gas_apfd_def2svp.chk
 ---------------------------
 #Opt Freq apfd/def2svp Test
 ---------------------------
 1/18=20,19=15,26=3,38=1/1,3;
 2/9=110,12=2,17=6,18=5,40=1/2;
 3/5=43,7=101,11=2,25=1,30=1,71=1,74=-44/1,2,3;
 4//1;
 5/5=2,38=5/2;
 6/7=2,8=2,9=2,10=2,28=1/1;
 7//1,2,3,16;
 1/18=20,19=15,26=3/3(2);
 2/9=110/2;
 99//99;
 2/9=110/2;
 3/5=43,7=101,11=2,25=1,30=1,71=1,74=-44/1,2,3;
 4/5=5,16=3,69=1/1;
 5/5=2,38=5/2;
 7//1,2,3,16;
 1/18=20,19=15,26=3/3(-5);
 2/9=110/2;
 6/7=2,8=2,9=2,10=2,19=2,28=1/1;
 99/9=1/99;
 -------------------------
 Optimization sh-solvation
 -------------------------
 Symbolic Z-matrix:
 Charge = -1 Multiplicity = 1
 S                    -3.48465   0.30495   0. 
 H                    -2.109     0.30495   0. 
 

 GradGradGradGradGradGradGradGradGradGradGradGradGradGradGradGradGradGrad
 Berny optimization.
 Initialization pass.
                           ----------------------------
                           !    Initial Parameters    !
                           ! (Angstroms and Degrees)  !
 --------------------------                            --------------------------
 ! Name  Definition              Value          Derivative Info.                !
 --------------------------------------------------------------------------------
 ! R1    R(1,2)                  1.3757         estimate D2E/DX2                !
 --------------------------------------------------------------------------------
 Trust Radius=3.00D-01 FncErr=1.00D-07 GrdErr=1.00D-06 EigMax=2.50D+02 EigMin=1.00D-04
 Number of steps in this run=     20 maximum allowed number of steps=    100.
 GradGradGradGradGradGradGradGradGradGradGradGradGradGradGradGradGradGrad

                          Input orientation:                          
 ---------------------------------------------------------------------
 Center     Atomic      Atomic             Coordinates (Angstroms)
 Number     Number       Type             X           Y           Z
 ---------------------------------------------------------------------
      1         16           0       -3.484650    0.304950    0.000000
      2          1           0       -2.109000    0.304950    0.000000
 ---------------------------------------------------------------------
 Stoichiometry    HS(1-)
 Framework group  C*V[C*(HS)]
 Deg. of freedom     1
 Full point group                 C*V     NOp   4
 Largest Abelian subgroup         C2V     NOp   4
 Largest concise Abelian subgroup C1      NOp   1
                         Standard orientation:                         
 ---------------------------------------------------------------------
 Center     Atomic      Atomic             Coordinates (Angstroms)
 Number     Number       Type             X           Y           Z
 ---------------------------------------------------------------------
      1         16           0        0.000000    0.000000    0.080921
      2          1           0        0.000000    0.000000   -1.294729
 ---------------------------------------------------------------------
 Rotational constants (GHZ):           0.0000000         273.3346343         273.3346343
 Standard basis: def2SVP (5D, 7F)
 There are    13 symmetry adapted cartesian basis functions of A1  symmetry.
 There are     1 symmetry adapted cartesian basis functions of A2  symmetry.
 There are     5 symmetry adapted cartesian basis functions of B1  symmetry.
 There are     5 symmetry adapted cartesian basis functions of B2  symmetry.
 There are    12 symmetry adapted basis functions of A1  symmetry.
 There are     1 symmetry adapted basis functions of A2  symmetry.
 There are     5 symmetry adapted basis functions of B1  symmetry.
 There are     5 symmetry adapted basis functions of B2  symmetry.
    23 basis functions,    44 primitive gaussians,    24 cartesian basis functions
     9 alpha electrons        9 beta electrons
       nuclear repulsion energy         6.1547889178 Hartrees.
 NAtoms=    2 NActive=    2 NUniq=    2 SFac= 1.00D+00 NAtFMM=   60 NAOKFM=F Big=F
 Integral buffers will be    131072 words long.
 Raffenetti 2 integral format.
 Two-electron integral symmetry is turned on.
 R6APFD:  NTU= -4 IXU= 1 FactS= 1.050
 Nuclear repulsion after empirical dispersion term =        6.1547889178 Hartrees.
 One-electron integrals computed using PRISM.
   4 Symmetry operations used in ECPInt.
 ECPInt:  NShTT=      66 NPrTT=     302 LenC2=      67 LenP2D=     294.
 LDataN:  DoStor=T MaxTD1= 4 Len=   56
 NBasis=    23 RedAO= T EigKep=  5.41D-02  NBF=    12     1     5     5
 NBsUse=    23 1.00D-06 EigRej= -1.00D+00 NBFU=    12     1     5     5
 ExpMin= 1.22D-01 ExpMax= 9.18D+03 ExpMxC= 1.38D+03 IAcc=3 IRadAn=         5 AccDes= 0.00D+00
 Harris functional with IExCor= 3731 and IRadAn=       5 diagonalized for initial guess.
 HarFok:  IExCor= 3731 AccDes= 0.00D+00 IRadAn=         5 IDoV= 1 UseB2=F ITyADJ=14
 ICtDFT=  3500011 ScaDFX=  1.000000  1.000000  1.000000  1.000000
 FoFCou: FMM=F IPFlag=           0 FMFlag=      100000 FMFlg1=           0
         NFxFlg=           0 DoJE=T BraDBF=F KetDBF=T FulRan=T
         wScrn=  0.000000 ICntrl=       500 IOpCl=  0 I1Cent=   200000004 NGrid=           0
         NMat0=    1 NMatS0=      1 NMatT0=    0 NMatD0=    1 NMtDS0=    0 NMtDT0=    0
 Petite list used in FoFCou.
 Initial guess orbital symmetries:
       Occupied  (SG) (SG) (SG) (PI) (PI) (SG) (SG) (PI) (PI)
       Virtual   (SG) (SG) (SG) (PI) (PI) (DLTA) (DLTA) (PI) (PI)
                 (SG) (SG) (PI) (PI) (SG)
 The electronic state of the initial guess is 1-SG.
 Keep R1 ints in memory in symmetry-blocked form, NReq=20727275.
 Requested convergence on RMS density matrix=1.00D-08 within 128 cycles.
 Requested convergence on MAX density matrix=1.00D-06.
 Requested convergence on             energy=1.00D-06.
 No special actions if energy rises.
 Integral accuracy reduced to 1.0D-05 until final iterations.
 Initial convergence to 1.0D-05 achieved.  Increase integral accuracy.
 SCF Done:  E(RAPFD) =  -398.566075484     A.U. after   10 cycles
            NFock= 10  Conv=0.75D-08     -V/T= 2.0019

 **********************************************************************

            Population analysis using the SCF density.

 **********************************************************************

 Orbital symmetries:
       Occupied  (SG) (SG) (SG) (PI) (PI) (SG) (SG) (PI) (PI)
       Virtual   (SG) (SG) (SG) (PI) (PI) (PI) (PI) (DLTA) (DLTA)
                 (SG) (SG) (PI) (PI) (SG)
 The electronic state is 1-SG.
 Alpha  occ. eigenvalues --  -88.56809  -7.61345  -5.56768  -5.55806  -5.55806
 Alpha  occ. eigenvalues --   -0.36610  -0.07673   0.06761   0.06761
 Alpha virt. eigenvalues --    0.31110   0.62157   0.70575   0.97217   0.97217
 Alpha virt. eigenvalues --    1.03434   1.03434   1.04216   1.04216   1.05708
 Alpha virt. eigenvalues --    1.32560   1.84585   1.84585   2.46139
          Condensed to atoms (all electrons):
               1          2
     1  S   16.699850   0.201824
     2  H    0.201824   0.896501
 Mulliken charges:
               1
     1  S   -0.901674
     2  H   -0.098326
 Sum of Mulliken charges =  -1.00000
 Mulliken charges with hydrogens summed into heavy atoms:
               1
     1  S   -1.000000
 Electronic spatial extent (au):  <R**2>=             44.2913
 Charge=             -1.0000 electrons
 Dipole moment (field-independent basis, Debye):
    X=              0.0000    Y=              0.0000    Z=             -0.5566  Tot=              0.5566
 Quadrupole moment (field-independent basis, Debye-Ang):
   XX=            -17.7489   YY=            -17.7489   ZZ=            -15.5205
   XY=              0.0000   XZ=              0.0000   YZ=              0.0000
 Traceless Quadrupole moment (field-independent basis, Debye-Ang):
   XX=             -0.7428   YY=             -0.7428   ZZ=              1.4856
   XY=              0.0000   XZ=              0.0000   YZ=              0.0000
 Octapole moment (field-independent basis, Debye-Ang**2):
  XXX=              0.0000  YYY=              0.0000  ZZZ=              1.0066  XYY=              0.0000
  XXY=              0.0000  XXZ=             -0.1899  XZZ=              0.0000  YZZ=              0.0000
  YYZ=             -0.1899  XYZ=              0.0000
 Hexadecapole moment (field-independent basis, Debye-Ang**3):
 XXXX=            -23.3289 YYYY=            -23.3289 ZZZZ=            -30.0784 XXXY=              0.0000
 XXXZ=              0.0000 YYYX=              0.0000 YYYZ=              0.0000 ZZZX=              0.0000
 ZZZY=              0.0000 XXYY=             -7.7763 XXZZ=             -9.0051 YYZZ=             -9.0051
 XXYZ=              0.0000 YYXZ=              0.0000 ZZXY=              0.0000
 N-N= 6.154788917763D+00 E-N=-9.665148557395D+02  KE= 3.978017540985D+02
 Symmetry A1   KE= 3.213858085692D+02
 Symmetry A2   KE= 0.000000000000D+00
 Symmetry B1   KE= 3.820797276466D+01
 Symmetry B2   KE= 3.820797276466D+01
 R6APFD:  NTU= -4 IXU= 1 FactS= 1.050
   4 Symmetry operations used in ECPInt.
 ECPInt:  NShTT=      66 NPrTT=     302 LenC2=      67 LenP2D=     294.
 LDataN:  DoStor=T MaxTD1= 5 Len=  102
 Calling FoFJK, ICntrl=      2127 FMM=F ISym2X=1 I1Cent= 0 IOpClX= 0 NMat=1 NMatS=1 NMatT=0.
 ***** Axes restored to original set *****
 -------------------------------------------------------------------
 Center     Atomic                   Forces (Hartrees/Bohr)
 Number     Number              X              Y              Z
 -------------------------------------------------------------------
      1       16           0.006846845   -0.000000000   -0.000000000
      2        1          -0.006846845   -0.000000000   -0.000000000
 -------------------------------------------------------------------
 Cartesian Forces:  Max     0.006846845 RMS     0.003953028

 GradGradGradGradGradGradGradGradGradGradGradGradGradGradGradGradGradGrad
 Berny optimization.
 FormGI is forming the generalized inverse of G from B-inverse, IUseBI=4.
 Internal  Forces:  Max     0.006846845 RMS     0.006846845
 Search for a local minimum.
 Step number   1 out of a maximum of   20
 All quantities printed in internal units (Hartrees-Bohrs-Radians)
 Mixed Optimization -- RFO/linear search
 Second derivative matrix not updated -- first step.
 The second derivative matrix:
                          R1
           R1           0.23764
 ITU=  0
     Eigenvalues ---    0.23764
 RFO step:  Lambda=-1.97110373D-04 EMin= 2.37635542D-01
 Linear search not attempted -- first point.
 Iteration  1 RMS(Cart)=  0.02035654 RMS(Int)=  0.00000000
 Iteration  2 RMS(Cart)=  0.00000000 RMS(Int)=  0.00000000
 ClnCor:  largest displacement from symmetrization is 0.00D+00 for atom     0.
 Variable       Old X    -DE/DX   Delta X   Delta X   Delta X     New X
                                 (Linear)    (Quad)   (Total)
    R1        2.59960  -0.00685   0.00000  -0.02879  -0.02879   2.57081
         Item               Value     Threshold  Converged?
 Maximum Force            0.006847     0.000450     NO 
 RMS     Force            0.006847     0.000300     NO 
 Maximum Displacement     0.014394     0.001800     NO 
 RMS     Displacement     0.020357     0.001200     NO 
 Predicted change in Energy=-9.863687D-05
 GradGradGradGradGradGradGradGradGradGradGradGradGradGradGradGradGradGrad

                          Input orientation:                          
 ---------------------------------------------------------------------
 Center     Atomic      Atomic             Coordinates (Angstroms)
 Number     Number       Type             X           Y           Z
 ---------------------------------------------------------------------
      1         16           0       -3.477033    0.304950    0.000000
      2          1           0       -2.116617    0.304950    0.000000
 ---------------------------------------------------------------------
 Stoichiometry    HS(1-)
 Framework group  C*V[C*(HS)]
 Deg. of freedom     1
 Full point group                 C*V     NOp   4
 Largest Abelian subgroup         C2V     NOp   4
 Largest concise Abelian subgroup C1      NOp   1
                         Standard orientation:                         
 ---------------------------------------------------------------------
 Center     Atomic      Atomic             Coordinates (Angstroms)
 Number     Number       Type             X           Y           Z
 ---------------------------------------------------------------------
      1         16           0        0.000000    0.000000    0.080024
      2          1           0        0.000000    0.000000   -1.280391
 ---------------------------------------------------------------------
 Rotational constants (GHZ):           0.0000000         279.4906257         279.4906257
 Standard basis: def2SVP (5D, 7F)
 There are    13 symmetry adapted cartesian basis functions of A1  symmetry.
 There are     1 symmetry adapted cartesian basis functions of A2  symmetry.
 There are     5 symmetry adapted cartesian basis functions of B1  symmetry.
 There are     5 symmetry adapted cartesian basis functions of B2  symmetry.
 There are    12 symmetry adapted basis functions of A1  symmetry.
 There are     1 symmetry adapted basis functions of A2  symmetry.
 There are     5 symmetry adapted basis functions of B1  symmetry.
 There are     5 symmetry adapted basis functions of B2  symmetry.
    23 basis functions,    44 primitive gaussians,    24 cartesian basis functions
     9 alpha electrons        9 beta electrons
       nuclear repulsion energy         6.2237115150 Hartrees.
 NAtoms=    2 NActive=    2 NUniq=    2 SFac= 1.00D+00 NAtFMM=   60 NAOKFM=F Big=F
 Integral buffers will be    131072 words long.
 Raffenetti 2 integral format.
 Two-electron integral symmetry is turned on.
 R6APFD:  NTU= -4 IXU= 1 FactS= 1.050
 Nuclear repulsion after empirical dispersion term =        6.2237115150 Hartrees.
 One-electron integrals computed using PRISM.
   4 Symmetry operations used in ECPInt.
 ECPInt:  NShTT=      66 NPrTT=     302 LenC2=      67 LenP2D=     294.
 LDataN:  DoStor=T MaxTD1= 4 Len=   56
 NBasis=    23 RedAO= T EigKep=  5.31D-02  NBF=    12     1     5     5
 NBsUse=    23 1.00D-06 EigRej= -1.00D+00 NBFU=    12     1     5     5
 Initial guess from the checkpoint file:  "sh_gas_apfd_def2svp.chk"
 B after Tr=     0.000000    0.000000   -0.000000
         Rot=    1.000000    0.000000    0.000000    0.000000 Ang=   0.00 deg.
 Initial guess orbital symmetries:
       Occupied  (SG) (SG) (SG) (PI) (PI) (SG) (SG) (PI) (PI)
       Virtual   (SG) (SG) (SG) (PI) (PI) (PI) (PI) (DLTA) (DLTA)
                 (SG) (SG) (PI) (PI) (SG)
 Keep R1 ints in memory in symmetry-blocked form, NReq=20727275.
 Requested convergence on RMS density matrix=1.00D-08 within 128 cycles.
 Requested convergence on MAX density matrix=1.00D-06.
 Requested convergence on             energy=1.00D-06.
 No special actions if energy rises.
 SCF Done:  E(RAPFD) =  -398.566174462     A.U. after    8 cycles
            NFock=  8  Conv=0.73D-09     -V/T= 2.0019
 R6APFD:  NTU= -4 IXU= 1 FactS= 1.050
   4 Symmetry operations used in ECPInt.
 ECPInt:  NShTT=      66 NPrTT=     302 LenC2=      67 LenP2D=     294.
 LDataN:  DoStor=T MaxTD1= 5 Len=  102
 Calling FoFJK, ICntrl=      2127 FMM=F ISym2X=1 I1Cent= 0 IOpClX= 0 NMat=1 NMatS=1 NMatT=0.
 ***** Axes restored to original set *****
 -------------------------------------------------------------------
 Center     Atomic                   Forces (Hartrees/Bohr)
 Number     Number              X              Y              Z
 -------------------------------------------------------------------
      1       16          -0.000066779   -0.000000000   -0.000000000
      2        1           0.000066779   -0.000000000   -0.000000000
 -------------------------------------------------------------------
 Cartesian Forces:  Max     0.000066779 RMS     0.000038555

 GradGradGradGradGradGradGradGradGradGradGradGradGradGradGradGradGradGrad
 Berny optimization.
 Using GEDIIS/GDIIS optimizer.
 Internal  Forces:  Max     0.000066779 RMS     0.000066779
 Search for a local minimum.
 Step number   2 out of a maximum of   20
 All quantities printed in internal units (Hartrees-Bohrs-Radians)
 Mixed Optimization -- En-DIIS/RFO-DIIS
 Update second derivatives using D2CorX and points    1    2
 DE= -9.90D-05 DEPred=-9.86D-05 R= 1.00D+00
 TightC=F SS=  1.41D+00  RLast= 2.88D-02 DXNew= 5.0454D-01 8.6365D-02
 Trust test= 1.00D+00 RLast= 2.88D-02 DXMaxT set to 3.00D-01
 The second derivative matrix:
                          R1
           R1           0.24015
 ITU=  1  0
 Use linear search instead of GDIIS.
     Eigenvalues ---    0.24015
 RFO step:  Lambda= 0.00000000D+00 EMin= 2.40152300D-01
 Quartic linear search produced a step of -0.00927.
 Iteration  1 RMS(Cart)=  0.00018877 RMS(Int)=  0.00000000
 Iteration  2 RMS(Cart)=  0.00000000 RMS(Int)=  0.00000000
 ClnCor:  largest displacement from symmetrization is 0.00D+00 for atom     0.
 Variable       Old X    -DE/DX   Delta X   Delta X   Delta X     New X
                                 (Linear)    (Quad)   (Total)
    R1        2.57081   0.00007   0.00027  -0.00000   0.00027   2.57108
         Item               Value     Threshold  Converged?
 Maximum Force            0.000067     0.000450     YES
 RMS     Force            0.000067     0.000300     YES
 Maximum Displacement     0.000133     0.001800     YES
 RMS     Displacement     0.000189     0.001200     YES
 Predicted change in Energy=-9.269816D-09
 Optimization completed.
    -- Stationary point found.
                           ----------------------------
                           !   Optimized Parameters   !
                           ! (Angstroms and Degrees)  !
 --------------------------                            --------------------------
 ! Name  Definition              Value          Derivative Info.                !
 --------------------------------------------------------------------------------
 ! R1    R(1,2)                  1.3604         -DE/DX =    0.0001              !
 --------------------------------------------------------------------------------
 GradGradGradGradGradGradGradGradGradGradGradGradGradGradGradGradGradGrad

                          Input orientation:                          
 ---------------------------------------------------------------------
 Center     Atomic      Atomic             Coordinates (Angstroms)
 Number     Number       Type             X           Y           Z
 ---------------------------------------------------------------------
      1         16           0       -3.477033    0.304950    0.000000
      2          1           0       -2.116617    0.304950    0.000000
 ---------------------------------------------------------------------
 Stoichiometry    HS(1-)
 Framework group  C*V[C*(HS)]
 Deg. of freedom     1
 Full point group                 C*V     NOp   4
 Largest Abelian subgroup         C2V     NOp   4
 Largest concise Abelian subgroup C1      NOp   1
                         Standard orientation:                         
 ---------------------------------------------------------------------
 Center     Atomic      Atomic             Coordinates (Angstroms)
 Number     Number       Type             X           Y           Z
 ---------------------------------------------------------------------
      1         16           0        0.000000    0.000000    0.080024
      2          1           0        0.000000    0.000000   -1.280391
 ---------------------------------------------------------------------
 Rotational constants (GHZ):           0.0000000         279.4906257         279.4906257

 **********************************************************************

            Population analysis using the SCF density.

 **********************************************************************

 Orbital symmetries:
       Occupied  (SG) (SG) (SG) (PI) (PI) (SG) (SG) (PI) (PI)
       Virtual   (SG) (SG) (SG) (PI) (PI) (PI) (PI) (DLTA) (DLTA)
                 (SG) (SG) (PI) (PI) (SG)
 The electronic state is 1-SG.
 Alpha  occ. eigenvalues --  -88.56665  -7.61228  -5.56643  -5.55691  -5.55691
 Alpha  occ. eigenvalues --   -0.36777  -0.07700   0.06791   0.06791
 Alpha virt. eigenvalues --    0.31452   0.62030   0.70713   0.97161   0.97161
 Alpha virt. eigenvalues --    1.03489   1.03489   1.04263   1.04263   1.06195
 Alpha virt. eigenvalues --    1.33440   1.85280   1.85280   2.48192
          Condensed to atoms (all electrons):
               1          2
     1  S   16.701151   0.202297
     2  H    0.202297   0.894255
 Mulliken charges:
               1
     1  S   -0.903448
     2  H   -0.096552
 Sum of Mulliken charges =  -1.00000
 Mulliken charges with hydrogens summed into heavy atoms:
               1
     1  S   -1.000000
 Electronic spatial extent (au):  <R**2>=             44.0995
 Charge=             -1.0000 electrons
 Dipole moment (field-independent basis, Debye):
    X=              0.0000    Y=              0.0000    Z=             -0.5886  Tot=              0.5886
 Quadrupole moment (field-independent basis, Debye-Ang):
   XX=            -17.7308   YY=            -17.7308   ZZ=            -15.4872
   XY=              0.0000   XZ=              0.0000   YZ=              0.0000
 Traceless Quadrupole moment (field-independent basis, Debye-Ang):
   XX=             -0.7479   YY=             -0.7479   ZZ=              1.4958
   XY=              0.0000   XZ=              0.0000   YZ=              0.0000
 Octapole moment (field-independent basis, Debye-Ang**2):
  XXX=              0.0000  YYY=              0.0000  ZZZ=              0.8700  XYY=              0.0000
  XXY=              0.0000  XXZ=             -0.2250  XZZ=              0.0000  YZZ=              0.0000
  YYZ=             -0.2250  XYZ=              0.0000
 Hexadecapole moment (field-independent basis, Debye-Ang**3):
 XXXX=            -23.2970 YYYY=            -23.2970 ZZZZ=            -29.6214 XXXY=              0.0000
 XXXZ=              0.0000 YYYX=              0.0000 YYYZ=              0.0000 ZZZX=              0.0000
 ZZZY=              0.0000 XXYY=             -7.7657 XXZZ=             -8.9229 YYZZ=             -8.9229
 XXYZ=              0.0000 YYXZ=              0.0000 ZZXY=              0.0000
 N-N= 6.223711515031D+00 E-N=-9.666755894581D+02  KE= 3.978173002873D+02
 Symmetry A1   KE= 3.214050442668D+02
 Symmetry A2   KE= 3.783561739932D-51
 Symmetry B1   KE= 3.820612801026D+01
 Symmetry B2   KE= 3.820612801026D+01

 Test job not archived.
 1\1\GINC-GRANADO-COMPUTE-15\FOpt\RAPFD\def2SVP\H1S1(1-)\ROOT\02-Apr-20
 23\0\\#Opt Freq apfd/def2svp Test\\Optimization sh-solvation\\-1,1\S,-
 3.4770328916,0.30495,0.\H,-2.1166171084,0.30495,0.\\Version=EM64L-G16R
 evA.03\State=1-SG\HF=-398.5661745\RMSD=7.265e-10\RMSF=3.855e-05\Dipole
 =0.2315635,0.,0.\Quadrupole=1.1120731,-0.5560366,-0.5560366,0.,0.,0.\P
 G=C*V [C*(H1S1)]\\@


 THE HURRIEDER I GO, THE BEHINDER I GET.
 Job cpu time:       0 days  0 hours 11 minutes 20.8 seconds.
 Elapsed time:       0 days  0 hours  7 minutes 38.1 seconds.
 File lengths (MBytes):  RWF=      6 Int=      0 D2E=      0 Chk=      2 Scr=      1
 Normal termination of Gaussian 16 at Sun Apr  2 15:25:39 2023.
 Link1:  Proceeding to internal job step number  2.
 ----------------------------------------------------------------------
 #N Geom=AllCheck Guess=TCheck SCRF=Check Test GenChk RAPFD/def2SVP Fre
 q
 ----------------------------------------------------------------------
 1/10=4,29=7,30=1,38=1,40=1/1,3;
 2/12=2,40=1/2;
 3/5=43,7=101,11=2,14=-4,25=1,30=1,70=2,71=2,74=-44,116=1,140=1/1,2,3;
 4/5=101/1;
 5/5=2,38=6,98=1/2;
 8/6=4,10=90,11=11/1;
 11/6=1,8=1,9=11,15=111,16=1/1,2,10;
 10/6=1/2;
 6/7=2,8=2,9=2,10=2,28=1/1;
 7/8=1,10=1,25=1/1,2,3,16;
 1/10=4,30=1/3;
 99//99;
 Structure from the checkpoint file:  "sh_gas_apfd_def2svp.chk"
 -------------------------
 Optimization sh-solvation
 -------------------------
 Charge = -1 Multiplicity = 1
 Redundant internal coordinates found in file.  (old form).
 S,0,-3.4770328916,0.30495,0.
 H,0,-2.1166171084,0.30495,0.
 Recover connectivity data from disk.

 GradGradGradGradGradGradGradGradGradGradGradGradGradGradGradGradGradGrad
 Berny optimization.
 Initialization pass.
                           ----------------------------
                           !    Initial Parameters    !
                           ! (Angstroms and Degrees)  !
 --------------------------                            --------------------------
 ! Name  Definition              Value          Derivative Info.                !
 --------------------------------------------------------------------------------
 ! R1    R(1,2)                  1.3604         calculate D2E/DX2 analytically  !
 --------------------------------------------------------------------------------
 Trust Radius=3.00D-01 FncErr=1.00D-07 GrdErr=1.00D-07 EigMax=2.50D+02 EigMin=1.00D-04
 Number of steps in this run=      2 maximum allowed number of steps=      2.
 GradGradGradGradGradGradGradGradGradGradGradGradGradGradGradGradGradGrad

                          Input orientation:                          
 ---------------------------------------------------------------------
 Center     Atomic      Atomic             Coordinates (Angstroms)
 Number     Number       Type             X           Y           Z
 ---------------------------------------------------------------------
      1         16           0       -3.477033    0.304950    0.000000
      2          1           0       -2.116617    0.304950    0.000000
 ---------------------------------------------------------------------
 Stoichiometry    HS(1-)
 Framework group  C*V[C*(HS)]
 Deg. of freedom     1
 Full point group                 C*V     NOp   4
 Largest Abelian subgroup         C2V     NOp   4
 Largest concise Abelian subgroup C1      NOp   1
                         Standard orientation:                         
 ---------------------------------------------------------------------
 Center     Atomic      Atomic             Coordinates (Angstroms)
 Number     Number       Type             X           Y           Z
 ---------------------------------------------------------------------
      1         16           0        0.000000    0.000000    0.080024
      2          1           0        0.000000    0.000000   -1.280391
 ---------------------------------------------------------------------
 Rotational constants (GHZ):           0.0000000         279.4906257         279.4906257
 Standard basis: def2SVP (5D, 7F)
 There are    13 symmetry adapted cartesian basis functions of A1  symmetry.
 There are     1 symmetry adapted cartesian basis functions of A2  symmetry.
 There are     5 symmetry adapted cartesian basis functions of B1  symmetry.
 There are     5 symmetry adapted cartesian basis functions of B2  symmetry.
 There are    12 symmetry adapted basis functions of A1  symmetry.
 There are     1 symmetry adapted basis functions of A2  symmetry.
 There are     5 symmetry adapted basis functions of B1  symmetry.
 There are     5 symmetry adapted basis functions of B2  symmetry.
    23 basis functions,    44 primitive gaussians,    24 cartesian basis functions
     9 alpha electrons        9 beta electrons
       nuclear repulsion energy         6.2237115150 Hartrees.
 NAtoms=    2 NActive=    2 NUniq=    2 SFac= 1.00D+00 NAtFMM=   60 NAOKFM=F Big=F
 Integral buffers will be    131072 words long.
 Raffenetti 2 integral format.
 Two-electron integral symmetry is turned on.
 R6APFD:  NTU= -4 IXU= 1 FactS= 1.050
 Nuclear repulsion after empirical dispersion term =        6.2237115150 Hartrees.
 One-electron integrals computed using PRISM.
   4 Symmetry operations used in ECPInt.
 ECPInt:  NShTT=      66 NPrTT=     302 LenC2=      67 LenP2D=     294.
 LDataN:  DoStor=T MaxTD1= 4 Len=   56
 NBasis=    23 RedAO= T EigKep=  5.31D-02  NBF=    12     1     5     5
 NBsUse=    23 1.00D-06 EigRej= -1.00D+00 NBFU=    12     1     5     5
 Initial guess from the checkpoint file:  "sh_gas_apfd_def2svp.chk"
 B after Tr=     0.000000    0.000000    0.000000
         Rot=    1.000000    0.000000    0.000000    0.000000 Ang=   0.00 deg.
 Initial guess orbital symmetries:
       Occupied  (SG) (SG) (SG) (PI) (PI) (SG) (SG) (PI) (PI)
       Virtual   (SG) (SG) (SG) (PI) (PI) (PI) (PI) (DLTA) (DLTA)
                 (SG) (SG) (PI) (PI) (SG)
 Keep R1 ints in memory in symmetry-blocked form, NReq=20727275.
 Requested convergence on RMS density matrix=1.00D-08 within 128 cycles.
 Requested convergence on MAX density matrix=1.00D-06.
 Requested convergence on             energy=1.00D-06.
 No special actions if energy rises.
 Skip diagonalization as Alpha Fock matrix is already diagonal.
 SCF Done:  E(RAPFD) =  -398.566174462     A.U. after    1 cycles
            NFock=  1  Conv=0.00D+00     -V/T= 2.0019
 DoSCS=F DFT=T ScalE2(SS,OS)=  1.000000  1.000000
 Range of M.O.s used for correlation:     1    23
 NBasis=    23 NAE=     9 NBE=     9 NFC=     0 NFV=     0
 NROrb=     23 NOA=     9 NOB=     9 NVA=    14 NVB=    14
   4 Symmetry operations used in ECPInt.
 ECPInt:  NShTT=      66 NPrTT=     302 LenC2=      67 LenP2D=     294.
 LDataN:  DoStor=T MaxTD1= 5 Len=  102
 R6APFD:  NTU= -4 IXU= 1 FactS= 1.050
 Symmetrizing basis deriv contribution to polar:
 IMax=3 JMax=2 DiffMx= 0.00D+00
 G2DrvN: will do     3 centers at a time, making    1 passes.
 Calling FoFCou, ICntrl=  3107 FMM=F I1Cent=   0 AccDes= 0.00D+00.
 End of G2Drv F.D. properties file   721 does not exist.
 End of G2Drv F.D. propert End of G2Drv F.D. properties file   721 does not exist.
 End of G2Drv F.D. properties f          IDoAtm=11
          Differentiating once with respect to electric field.
          IDoAtm=11
          Differentiating once with respect to electric field.
                with respect to Keep R1 ints in memory in symmetry-blocked form, NReq=20645049.
          There are     9 degrees of freedom in the 1st order CPHF.  IDoFFX=6 NUNee                6 vectors produced by pass  0 Test12= 1.40D-15 1.11D-08 XBig12= 1.64D+01 3.79       AX will form     6 AO Fock derivatives at one time.
      6 vectors produced by pass  1 Test12= 1.40D-15 1.11D-08 XBig12= 8.42D-01 5.14D-01.
      6 vectors produced by pass  2 Test12= 1.40D-15 1.11D-08 XBig12= 1.28D-02 5.77D-02.
      6 vectors produced by pass  3 Test12= 1.40D-15 1.11D-08 XBig12= 3.17D-05 1.88D-03.
      6 vectors produced by pass  4 Test12= 1.40D-15 1.11D-08 XBig12= 9.20D-08 1.22D-04.
      4 vectors produced by pass  5 Test12= 1.40D-15 1.11D-08 XBig12= 6.09D-11 2.48D-06.
      1 vectors produced by pass  6 Test12= 1.40D-15 1.11D-08 XBig12= 2.09D-14 8.02D-08.
 InvSVY:  IOpt=1 It=  1 EMax= 1.11D-16
 Solved reduced A of dimension    35 with     6 vectors.
 Isotropic polarizability for W=    0.000000       13.52 Bohr**3.
 End of Minotr F.D. properties file   721 does not exist.
 End of Minotr F.D. properties file   722 does not exist.
 End of Minotr F.D. properties file   788 does not exist.

 **********************************************************************

            Population analysis using the SCF density.

 **********************************************************************

 Orbital symmetries:
       Occupied  (SG) (SG) (SG) (PI) (PI) (SG) (SG) (PI) (PI)
       Virtual   (SG) (SG) (SG) (PI) (PI) (PI) (PI) (DLTA) (DLTA)
                 (SG) (SG) (PI) (PI) (SG)
 The electronic state is 1-SG.
 Alpha  occ. eigenvalues --  -88.56665  -7.61228  -5.56643  -5.55691  -5.55691
 Alpha  occ. eigenvalues --   -0.36777  -0.07700   0.06791   0.06791
 Alpha virt. eigenvalues --    0.31452   0.62030   0.70713   0.97161   0.97161
 Alpha virt. eigenvalues --    1.03489   1.03489   1.04263   1.04263   1.06195
 Alpha virt. eigenvalues --    1.33440   1.85280   1.85280   2.48192
          Condensed to atoms (all electrons):
               1          2
     1  S   16.701151   0.202297
     2  H    0.202297   0.894255
 Mulliken charges:
               1
     1  S   -0.903448
     2  H   -0.096552
 Sum of Mulliken charges =  -1.00000
 Mulliken charges with hydrogens summed into heavy atoms:
               1
     1  S   -1.000000
 APT charges:
               1
     1  S   -0.857334
     2  H   -0.142666
 Sum of APT charges =  -1.00000
 APT charges with hydrogens summed into heavy atoms:
               1
     1  S   -1.000000
 Electronic spatial extent (au):  <R**2>=             44.0995
 Charge=             -1.0000 electrons
 Dipole moment (field-independent basis, Debye):
    X=              0.0000    Y=              0.0000    Z=             -0.5886  Tot=              0.5886
 Quadrupole moment (field-independent basis, Debye-Ang):
   XX=            -17.7308   YY=            -17.7308   ZZ=            -15.4872
   XY=              0.0000   XZ=              0.0000   YZ=              0.0000
 Traceless Quadrupole moment (field-independent basis, Debye-Ang):
   XX=             -0.7479   YY=             -0.7479   ZZ=              1.4958
   XY=              0.0000   XZ=              0.0000   YZ=              0.0000
 Octapole moment (field-independent basis, Debye-Ang**2):
  XXX=              0.0000  YYY=              0.0000  ZZZ=              0.8700  XYY=              0.0000
  XXY=              0.0000  XXZ=             -0.2250  XZZ=              0.0000  YZZ=              0.0000
  YYZ=             -0.2250  XYZ=              0.0000
 Hexadecapole moment (field-independent basis, Debye-Ang**3):
 XXXX=            -23.2970 YYYY=            -23.2970 ZZZZ=            -29.6214 XXXY=              0.0000
 XXXZ=              0.0000 YYYX=              0.0000 YYYZ=              0.0000 ZZZX=              0.0000
 ZZZY=              0.0000 XXYY=             -7.7657 XXZZ=             -8.9229 YYZZ=             -8.9229
 XXYZ=              0.0000 YYXZ=              0.0000 ZZXY=              0.0000
 N-N= 6.223711515031D+00 E-N=-9.666755894581D+02  KE= 3.978173002873D+02
 Symmetry A1   KE= 3.214050442668D+02
 Symmetry A2   KE= 0.000000000000D+00
 Symmetry B1   KE= 3.820612801026D+01
 Symmetry B2   KE= 3.820612801026D+01
  Exact polarizability:   9.802   0.000   9.802  -0.000   0.000  20.951
 Approx polarizability:  12.246  -0.000  12.246  -0.000  -0.000  29.618
 R6APFD:  NTU= -4 IXU= 1 FactS= 1.050
   4 Symmetry operations used in ECPInt.
 ECPInt:  NShTT=      66 NPrTT=     302 LenC2=      67 LenP2D=     294.
 LDataN:  DoStor=T MaxTD1= 6 Len=  172
 Calling FoFJK, ICntrl=    100127 FMM=F ISym2X=1 I1Cent= 0 IOpClX= 0 NMat=1 NMatS=1 NMatT=0.
 Full mass-weighted force constant matrix:
 Low frequencies ---   -0.0038   -0.0038    0.0050   38.1040   38.1040 2601.8561
 Diagonal vibrational polarizability:
        0.0000000       0.0000000       0.8388871
 Harmonic frequencies (cm**-1), IR intensities (KM/Mole), Raman scattering
 activities (A**4/AMU), depolarization ratios for plane and unpolarized
 incident light, reduced masses (AMU), force constants (mDyne/A),
 and normal coordinates:
                      1
                     SG
 Frequencies --   2601.8561
 Red. masses --      1.0386
 Frc consts  --      4.1424
 IR Inten    --    211.0265
  Atom  AN      X      Y      Z
     1  16    -0.00  -0.00  -0.03
     2   1    -0.00  -0.00   1.00

 -------------------
 - Thermochemistry -
 -------------------
 Temperature   298.150 Kelvin.  Pressure   1.00000 Atm.
 Atom     1 has atomic number 16 and mass  31.97207
 Atom     2 has atomic number  1 and mass   1.00783
 Molecular mass:    32.97990 amu.
 Principal axes and moments of inertia in atomic units:
                           1         2         3
     Eigenvalues --     0.00000   6.45725   6.45725
           X            0.00000  -0.00000   1.00000
           Y            0.00000   1.00000   0.00000
           Z            1.00000   0.00000   0.00000
 This molecule is a prolate symmetric top.
 Rotational symmetry number  1.
 Rotational temperature (Kelvin)     13.41344
 Rotational constant (GHZ):         279.490626
 Zero-point vibrational energy      15562.6 (Joules/Mol)
                                    3.71954 (Kcal/Mol)
 Vibrational temperatures:   3743.49
          (Kelvin)
 
 Zero-point correction=                           0.005927 (Hartree/Particle)
 Thermal correction to Energy=                    0.008288
 Thermal correction to Enthalpy=                  0.009232
 Thermal correction to Gibbs Free Energy=        -0.011941
 Sum of electronic and zero-point Energies=           -398.560247
 Sum of electronic and thermal Energies=              -398.557886
 Sum of electronic and thermal Enthalpies=            -398.556942
 Sum of electronic and thermal Free Energies=         -398.578115
 
                     E (Thermal)             CV                S
                      KCal/Mol        Cal/Mol-Kelvin    Cal/Mol-Kelvin
 Total                    5.201              4.969             44.562
 Electronic               0.000              0.000              0.000
 Translational            0.889              2.981             36.411
 Rotational               0.592              1.987              8.150
 Vibrational              3.720              0.001              0.000
                       Q            Log10(Q)             Ln(Q)
 Total Bot       0.310658D+06          5.492282         12.646447
 Total V=0       0.165472D+09          8.218724         18.924312
 Vib (Bot)       0.187741D-02         -2.726440         -6.277861
 Vib (V=0)       0.100000D+01          0.000002          0.000004
 Electronic      0.100000D+01          0.000000          0.000000
 Translational   0.744437D+07          6.871828         15.822968
 Rotational      0.222277D+02          1.346895          3.101340
 ***** Axes restored to original set *****
 -------------------------------------------------------------------
 Center     Atomic                   Forces (Hartrees/Bohr)
 Number     Number              X              Y              Z
 -------------------------------------------------------------------
      1       16          -0.000066779   -0.000000000   -0.000000000
      2        1           0.000066779   -0.000000000   -0.000000000
 -------------------------------------------------------------------
 Cartesian Forces:  Max     0.000066779 RMS     0.000038555
 FormGI is forming the generalized inverse of G from B-inverse, IUseBI=4.

 GradGradGradGradGradGradGradGradGradGradGradGradGradGradGradGradGradGrad
 Berny optimization.
 Internal  Forces:  Max     0.000066779 RMS     0.000066779
 Search for a local minimum.
 Step number   1 out of a maximum of    2
 All quantities printed in internal units (Hartrees-Bohrs-Radians)
 Second derivative matrix not updated -- analytic derivatives used.
 The second derivative matrix:
                          R1
           R1           0.25030
 ITU=  0
     Eigenvalues ---    0.25030
 Angle between quadratic step and forces=   0.00 degrees.
 Linear search not attempted -- first point.
 Iteration  1 RMS(Cart)=  0.00018865 RMS(Int)=  0.00000000
 Iteration  2 RMS(Cart)=  0.00000000 RMS(Int)=  0.00000000
 ClnCor:  largest displacement from symmetrization is 0.00D+00 for atom     0.
 Variable       Old X    -DE/DX   Delta X   Delta X   Delta X     New X
                                 (Linear)    (Quad)   (Total)
    R1        2.57081   0.00007   0.00000   0.00027   0.00027   2.57108
         Item               Value     Threshold  Converged?
 Maximum Force            0.000067     0.000450     YES
 RMS     Force            0.000067     0.000300     YES
 Maximum Displacement     0.000133     0.001800     YES
 RMS     Displacement     0.000189     0.001200     YES
 Predicted change in Energy=-8.908150D-09
 Optimization completed.
    -- Stationary point found.
                           ----------------------------
                           !   Optimized Parameters   !
                           ! (Angstroms and Degrees)  !
 --------------------------                            --------------------------
 ! Name  Definition              Value          Derivative Info.                !
 --------------------------------------------------------------------------------
 ! R1    R(1,2)                  1.3604         -DE/DX =    0.0001              !
 --------------------------------------------------------------------------------
 GradGradGradGradGradGradGradGradGradGradGradGradGradGradGradGradGradGrad


 ----------------------------------------------------------------------

 Electric dipole moment (input orientation):
 (Debye = 10**-18 statcoulomb cm , SI units = C m)
                  (au)            (Debye)         (10**-30 SI)
   Tot        0.231564D+00      0.588576D+00      0.196328D+01
   x          0.231564D+00      0.588576D+00      0.196328D+01
   y          0.000000D+00      0.000000D+00      0.000000D+00
   z          0.000000D+00      0.000000D+00      0.000000D+00

 Dipole polarizability, Alpha (input orientation).
 (esu units = cm**3 , SI units = C**2 m**2 J**-1)
 Alpha(0;0):
               (au)            (10**-24 esu)      (10**-40 SI)
   iso        0.135182D+02      0.200319D+01      0.222884D+01
   aniso      0.111495D+02      0.165219D+01      0.183831D+01
   xx         0.209512D+02      0.310464D+01      0.345438D+01
   yx         0.000000D+00      0.000000D+00      0.000000D+00
   yy         0.980166D+01      0.145246D+01      0.161608D+01
   zx         0.000000D+00      0.000000D+00      0.000000D+00
   zy         0.000000D+00      0.000000D+00      0.000000D+00
   zz         0.980166D+01      0.145246D+01      0.161608D+01

 ----------------------------------------------------------------------

 Dipole orientation:
    16         -0.00000000          0.57627198         -6.57063989
     1         -0.00000000          0.57627198         -3.99982665

 Electric dipole moment (dipole orientation):
 (Debye = 10**-18 statcoulomb cm , SI units = C m)
                  (au)            (Debye)         (10**-30 SI)
   Tot        0.231564D+00      0.588576D+00      0.196328D+01
   x          0.000000D+00      0.000000D+00      0.000000D+00
   y          0.000000D+00      0.000000D+00      0.000000D+00
   z          0.231564D+00      0.588576D+00      0.196328D+01

 Dipole polarizability, Alpha (dipole orientation).
 (esu units = cm**3 , SI units = C**2 m**2 J**-1)
 Alpha(0;0):
               (au)            (10**-24 esu)      (10**-40 SI)
   iso        0.135182D+02      0.200319D+01      0.222884D+01
   aniso      0.111495D+02      0.165219D+01      0.183831D+01
   xx         0.980166D+01      0.145246D+01      0.161608D+01
   yx         0.000000D+00      0.000000D+00      0.000000D+00
   yy         0.980166D+01      0.145246D+01      0.161608D+01
   zx         0.000000D+00      0.000000D+00      0.000000D+00
   zy         0.000000D+00      0.000000D+00      0.000000D+00
   zz         0.209512D+02      0.310464D+01      0.345438D+01

 ----------------------------------------------------------------------

 Test job not archived.
 1\1\GINC-GRANADO-COMPUTE-15\Freq\RAPFD\def2SVP\H1S1(1-)\ROOT\02-Apr-20
 23\0\\#N Geom=AllCheck Guess=TCheck SCRF=Check Test GenChk RAPFD/def2S
 VP Freq\\Optimization sh-solvation\\-1,1\S,-3.4770328916,0.30495,0.\H,
 -2.1166171084,0.30495,0.\\Version=EM64L-G16RevA.03\State=1-SG\HF=-398.
 5661745\RMSD=0.000e+00\RMSF=3.855e-05\ZeroPoint=0.0059275\Thermal=0.00
 8288\Dipole=0.2315635,0.,0.\DipoleDeriv=-0.5095595,0.,0.,0.,-1.0312213
 ,0.,0.,0.,-1.0312213,-0.4904405,0.,0.,0.,0.0312213,0.,0.,0.,0.0312213\
 Polar=20.9511769,0.,9.8016626,0.,0.,9.8016626\Quadrupole=1.1120731,-0.
 5560366,-0.5560366,0.,0.,0.\PG=C*V [C*(H1S1)]\NImag=0\\0.25030217,0.,0
 .00005368,0.,0.,0.00005368,-0.25030217,0.,0.,0.25030217,0.,-0.00005368
 ,0.,0.,0.00005368,0.,0.,-0.00005368,0.,0.,0.00005368\\0.00006678,0.,0.
 ,-0.00006678,0.,0.\\\@


 READER, WHETHER YOU BE DILETTANTE OR PROFESSOR ... SHOW YOURSELF TO BE
 MORE HUMAN THAN CRITICAL, AND THEN YOUR PLEASURE WILL INCREASE.
                                           -- DOMENICO SCARLATTI (1738)
 Job cpu time:       0 days  0 hours  9 minutes  2.7 seconds.
 Elapsed time:       0 days  0 hours  6 minutes  1.9 seconds.
 File lengths (MBytes):  RWF=      6 Int=      0 D2E=      0 Chk=      2 Scr=      1
 Normal termination of Gaussian 16 at Sun Apr  2 15:31:43 2023.
ian 16 at Sun Apr  2 15:31:43 2023.
023.
0 days  0 hours  9 minutes  6.3 seconds.
 Elapsed time:       0 days  0 hours  6 minutes  3.1 seconds.
 File lengths (MBytes):  RWF=      6 Int=      0 D2E=      0  File lengths (MBytes):  RWF=      6 Int=      0 D2E=      0 Chk=      2 Scr=      1
 Normal termination of Gaussian 16 at Sun Apr  2 15:31:41 2023.
days  0 hours  9 minutes  8.3 seconds.
 Elapsed time:       0 days  0 hours  6 minutes  5.0 seconds.
 File lengths (MBytes):  RWF=      6 Int=      0 D2E=      0 Chk=      2 Scr=      1
 Normal termination of Gaussian 16 at Sun Apr  2 15:31:41 2023.
