 Entering Gaussian System, Link 0=g16
 Input=input.gjf
 Output=input.log
 Initial command:
 /opt/ohpc/pub/apps/gaussian/G16x86_64_legacy_CPUs_linux_binary/g16/l1.exe "/tmp/Gau-49493.inp" -scrdir="/tmp/"
 Entering Link 1 = /opt/ohpc/pub/apps/gaussian/G16x86_64_legacy_CPUs_linux_binary/g16/l1.exe PID=     49517.
  
 Copyright (c) 1988,1990,1992,1993,1995,1998,2003,2009,2016,
            Gaussian, Inc.  All Rights Reserved.
  
 This is part of the Gaussian(R) 16 program.  It is based on
 the Gaussian(R) 09 system (copyright 2009, Gaussian, Inc.),
 the Gaussian(R) 03 system (copyright 2003, Gaussian, Inc.),
 the Gaussian(R) 98 system (copyright 1998, Gaussian, Inc.),
 the Gaussian(R) 94 system (copyright 1995, Gaussian, Inc.),
 the Gaussian 92(TM) system (copyright 1992, Gaussian, Inc.),
 the Gaussian 90(TM) system (copyright 1990, Gaussian, Inc.),
 the Gaussian 88(TM) system (copyright 1988, Gaussian, Inc.),
 the Gaussian 86(TM) system (copyright 1986, Carnegie Mellon
 University), and the Gaussian 82(TM) system (copyright 1983,
 Carnegie Mellon University). Gaussian is a federally registered
 trademark of Gaussian, Inc.
  
 This software contains proprietary and confidential information,
 including trade secrets, belonging to Gaussian, Inc.
  
 This software is provided under written license and may be
 used, copied, transmitted, or stored only in accord with that
 written license.
  
 The following legend is applicable only to US Government
 contracts under FAR:
  
                    RESTRICTED RIGHTS LEGEND
  
 Use, reproduction and disclosure by the US Government is
 subject to restrictions as set forth in subparagraphs (a)
 and (c) of the Commercial Computer Software - Restricted
 Rights clause in FAR 52.227-19.
  
 Gaussian, Inc.
 340 Quinnipiac St., Bldg. 40, Wallingford CT 06492
  
  
 ---------------------------------------------------------------
 Warning -- This program may not be used in any manner that
 competes with the business of Gaussian, Inc. or will provide
 assistance to any competitor of Gaussian, Inc.  The licensee
 of this program is prohibited from giving any competitor of
 Gaussian, Inc. access to this program.  By using this program,
 the user acknowledges that Gaussian, Inc. is engaged in the
 business of creating and licensing software in the field of
 computational chemistry and represents and warrants to the
 licensee that it is not a competitor of Gaussian, Inc. and that
 it will not use this program in any manner prohibited above.
 ---------------------------------------------------------------
  

 Cite this work as:
 Gaussian 16, Revision A.03,
 M. J. Frisch, G. W. Trucks, H. B. Schlegel, G. E. Scuseria, 
 M. A. Robb, J. R. Cheeseman, G. Scalmani, V. Barone, 
 G. A. Petersson, H. Nakatsuji, X. Li, M. Caricato, A. V. Marenich, 
 J. Bloino, B. G. Janesko, R. Gomperts, B. Mennucci, H. P. Hratchian, 
 J. V. Ortiz, A. F. Izmaylov, J. L. Sonnenberg, D. Williams-Young, 
 F. Ding, F. Lipparini, F. Egidi, J. Goings, B. Peng, A. Petrone, 
 T. Henderson, D. Ranasinghe, V. G. Zakrzewski, J. Gao, N. Rega, 
 G. Zheng, W. Liang, M. Hada, M. Ehara, K. Toyota, R. Fukuda, 
 J. Hasegawa, M. Ishida, T. Nakajima, Y. Honda, O. Kitao, H. Nakai, 
 T. Vreven, K. Throssell, J. A. Montgomery, Jr., J. E. Peralta, 
 F. Ogliaro, M. J. Bearpark, J. J. Heyd, E. N. Brothers, K. N. Kudin, 
 V. N. Staroverov, T. A. Keith, R. Kobayashi, J. Normand, 
 K. Raghavachari, A. P. Rendell, J. C. Burant, S. S. Iyengar, 
 J. Tomasi, M. Cossi, J. M. Millam, M. Klene, C. Adamo, R. Cammi, 
 J. W. Ochterski, R. L. Martin, K. Morokuma, O. Farkas, 
 J. B. Foresman, and D. J. Fox, Gaussian, Inc., Wallingford CT, 2016.
 
 ******************************************
 Gaussian 16:  EM64L-G16RevA.03 25-Dec-2016
                13-Aug-2023 
 ******************************************
 %NProcShared=24
 Will use up to   24 processors via shared memory.
 %Chk=ch3hgf_gas_apfd_def2svp.chk
 ------------------------------------------------
 #Opt Freq mp2/Def2SVP int=UltraFine scf=xqc test
 ------------------------------------------------
 1/18=20,19=15,38=1/1,3;
 2/9=110,12=2,17=6,18=5,40=1/2;
 3/5=43,7=101,11=9,25=1,30=1,71=1,75=-5/1,2,3;
 4//1;
 5/5=2,8=3,13=1,38=5/2,8;
 8/6=4,10=1/1;
 9/15=2,16=-3/6;
 10/5=1/2;
 6/7=2,8=2,9=2,10=2/1;
 7/12=2/1,2,3,16;
 1/18=20,19=15/3(2);
 2/9=110/2;
 99//99;
 2/9=110/2;
 3/5=43,7=101,11=9,25=1,30=1,71=1,75=-5/1,2,3;
 4/5=5,16=3,69=1/1;
 5/5=2,8=3,13=1,38=5/2,8;
 8/6=4,10=1/1;
 9/15=2,16=-3/6;
 10/5=1/2;
 7/12=2/1,2,3,16;
 1/18=20,19=15/3(-8);
 2/9=110/2;
 6/7=2,8=2,9=2,10=2/1;
 99//99;
 ------------------------------------------
 Optimization MeHgCl-apfd-def2svp-gas phase
 ------------------------------------------
 Symbolic Z-matrix:
 Charge =  0 Multiplicity = 1
 C                    -4.87226   1.58796   0.00002 
 Hg                   -3.37421   3.08412   0.00005 
 H                    -4.63754   0.85031   0.7709 
 H                    -4.89474   1.108    -0.98111 
 H                    -5.83831   2.05276   0.2102 
 F                    -1.69759   4.75882  -0.00006 
 

 GradGradGradGradGradGradGradGradGradGradGradGradGradGradGradGradGradGrad
 Berny optimization.
 Initialization pass.
                           ----------------------------
                           !    Initial Parameters    !
                           ! (Angstroms and Degrees)  !
 --------------------------                            --------------------------
 ! Name  Definition              Value          Derivative Info.                !
 --------------------------------------------------------------------------------
 ! R1    R(1,2)                  2.1172         estimate D2E/DX2                !
 ! R2    R(1,3)                  1.0925         estimate D2E/DX2                !
 ! R3    R(1,4)                  1.0925         estimate D2E/DX2                !
 ! R4    R(1,5)                  1.0925         estimate D2E/DX2                !
 ! R5    R(2,6)                  2.3697         estimate D2E/DX2                !
 ! A1    A(2,1,3)              108.9724         estimate D2E/DX2                !
 ! A2    A(2,1,4)              108.9678         estimate D2E/DX2                !
 ! A3    A(2,1,5)              108.9665         estimate D2E/DX2                !
 ! A4    A(3,1,4)              109.9682         estimate D2E/DX2                !
 ! A5    A(3,1,5)              109.9692         estimate D2E/DX2                !
 ! A6    A(4,1,5)              109.9691         estimate D2E/DX2                !
 ! A7    L(1,2,6,5,-1)         179.9977         estimate D2E/DX2                !
 ! A8    L(1,2,6,5,-2)         180.0102         estimate D2E/DX2                !
 ! D1    D(2,1,4,3)            119.3833         estimate D2E/DX2                !
 ! D2    D(2,1,5,3)           -119.383          estimate D2E/DX2                !
 ! D3    D(2,1,5,4)            119.3773         estimate D2E/DX2                !
 ! D4    D(3,1,5,4)           -121.2396         estimate D2E/DX2                !
 --------------------------------------------------------------------------------
 Trust Radius=3.00D-01 FncErr=1.00D-07 GrdErr=1.00D-07 EigMax=2.50D+02 EigMin=1.00D-04
 Number of steps in this run=     27 maximum allowed number of steps=    100.
 GradGradGradGradGradGradGradGradGradGradGradGradGradGradGradGradGradGrad

                          Input orientation:                          
 ---------------------------------------------------------------------
 Center     Atomic      Atomic             Coordinates (Angstroms)
 Number     Number       Type             X           Y           Z
 ---------------------------------------------------------------------
      1          6           0       -4.872260    1.587957    0.000017
      2         80           0       -3.374214    3.084122    0.000049
      3          1           0       -4.637535    0.850314    0.770897
      4          1           0       -4.894741    1.107998   -0.981111
      5          1           0       -5.838309    2.052761    0.210203
      6          9           0       -1.697590    4.758818   -0.000055
 ---------------------------------------------------------------------
                    Distance matrix (angstroms):
                    1          2          3          4          5
     1  C    0.000000
     2  Hg   2.117227   0.000000
     3  H    1.092460   2.679568   0.000000
     4  H    1.092464   2.679504   1.789438   0.000000
     5  H    1.092461   2.679484   1.789445   1.789449   0.000000
     6  F    4.486969   2.369741   4.951166   4.951033   4.951011
                    6
     6  F    0.000000
 This structure is nearly, but not quite of a higher symmetry.
 Consider Symm=Loose if the higher symmetry is desired.
 Stoichiometry    CH3FHg
 Framework group  C1[X(CH3FHg)]
 Deg. of freedom    12
 Full point group                 C1      NOp   1
 Largest Abelian subgroup         C1      NOp   1
 Largest concise Abelian subgroup C1      NOp   1
                         Standard orientation:                         
 ---------------------------------------------------------------------
 Center     Atomic      Atomic             Coordinates (Angstroms)
 Number     Number       Type             X           Y           Z
 ---------------------------------------------------------------------
      1          6           0        0.274855    0.691131   -1.995435
      2         80           0        0.001606    0.004004   -0.011539
      3          1           0        1.275212    1.120287   -2.088057
      4          1           0       -0.478833    1.450865   -2.215062
      5          1           0        0.165619   -0.152038   -2.681443
      6          9           0       -0.304405   -0.765132    2.208925
 ---------------------------------------------------------------------
 Rotational constants (GHZ):         156.6014583           2.8084315           2.8084312
 Standard basis: def2SVP (5D, 7F)
 There are    82 symmetry adapted cartesian basis functions of A   symmetry.
 There are    75 symmetry adapted basis functions of A   symmetry.
    75 basis functions,   136 primitive gaussians,    82 cartesian basis functions
    19 alpha electrons       19 beta electrons
       nuclear repulsion energy       100.8976350340 Hartrees.
 NAtoms=    6 NActive=    6 NUniq=    6 SFac= 1.00D+00 NAtFMM=   60 NAOKFM=F Big=F
 Integral buffers will be    131072 words long.
 Raffenetti 1 integral format.
 Two-electron integral symmetry is turned on.
 One-electron integrals computed using PRISM.
 PrsmSu:  requested number of processors reduced to:  13 ShMem   1 Linda.
   1 Symmetry operations used in ECPInt.
 ECPInt:  NShTT=     561 NPrTT=    1759 LenC2=     553 LenP2D=    1509.
 LDataN:  DoStor=T MaxTD1= 8 Len=  415
 NBasis=    75 RedAO= T EigKep=  9.29D-03  NBF=    75
 NBsUse=    75 1.00D-06 EigRej= -1.00D+00 NBFU=    75
 ExpMin= 5.64D-02 ExpMax= 2.89D+03 ExpMxC= 4.35D+02 IAcc=3 IRadAn=         5 AccDes= 0.00D+00
 Harris functional with IExCor=  205 and IRadAn=       5 diagonalized for initial guess.
 HarFok:  IExCor=  205 AccDes= 0.00D+00 IRadAn=         5 IDoV= 1 UseB2=F ITyADJ=14
 ICtDFT=  3500011 ScaDFX=  1.000000  1.000000  1.000000  1.000000
 Defaulting to unpruned grid for atomic number  80.
 FoFCou: FMM=F IPFlag=           0 FMFlag=      100000 FMFlg1=           0
         NFxFlg=           0 DoJE=T BraDBF=F KetDBF=T FulRan=T
         wScrn=  0.000000 ICntrl=       500 IOpCl=  0 I1Cent=   200000004 NGrid=           0
         NMat0=    1 NMatS0=      1 NMatT0=    0 NMatD0=    1 NMtDS0=    0 NMtDT0=    0
 Petite list used in FoFCou.
 Keep R1 ints in memory in canonical form, NReq=15771187.
 Requested convergence on RMS density matrix=1.00D-08 within  32 cycles.
 Requested convergence on MAX density matrix=1.00D-06.
 Requested convergence on             energy=1.00D-06.
 No special actions if energy rises.
 SCF Done:  E(RHF) =  -291.399954487     A.U. after   13 cycles
            NFock= 13  Conv=0.55D-08     -V/T= 2.5384
 QCSCF skips out because SCF is already converged.
 ExpMin= 5.64D-02 ExpMax= 2.89D+03 ExpMxC= 4.35D+02 IAcc=3 IRadAn=         5 AccDes= 0.00D+00
 HarFok:  IExCor=  205 AccDes= 0.00D+00 IRadAn=         5 IDoV=-2 UseB2=F ITyADJ=14
 ICtDFT= 12500011 ScaDFX=  1.000000  1.000000  1.000000  1.000000
 Defaulting to unpruned grid for atomic number  80.
 Range of M.O.s used for correlation:     3    75
 NBasis=    75 NAE=    19 NBE=    19 NFC=     2 NFV=     0
 NROrb=     73 NOA=    17 NOB=    17 NVA=    56 NVB=    56
 Disk-based method using ON**2 memory for 17 occupieds at a time.
 Estimated scratch disk usage=    17904589 words.
 Actual    scratch disk usage=    17118669 words.
 GetIJB would need an additional   279469861 words of memory to use all  24 processors.
 JobTyp=1 Pass  1:  I=   3 to  19 NPSUse=  6 ParTrn=T ParDer=T DoDerP=T.
 (rs|ai) integrals will be sorted in core.
 Spin components of T(2) and E(2):
     alpha-alpha T2 =       0.2824520021D-01 E2=     -0.1080296428D+00
     alpha-beta  T2 =       0.1376942270D+00 E2=     -0.4963349281D+00
     beta-beta   T2 =       0.2824520021D-01 E2=     -0.1080296428D+00
 ANorm=    0.1092787549D+01
 E2 =    -0.7123942136D+00 EUMP2 =    -0.29211234870032D+03
          IDoAtm=111111
          Differentiating once with respect to electric field.
                with respect to dipole field.
          Differentiating once with respect to nuclear coordinates.
 Keep R1 ints in memory in canonical form, NReq=15773253.
          There are     1 degrees of freedom in the 1st order CPHF.  IDoFFX=0 NUNeed=     1.
 LinEq1:  Iter=  0 NonCon=     1 RMS=1.13D-02 Max=2.59D-01 NDo=     1
 AX will form     1 AO Fock derivatives at one time.
 LinEq1:  Iter=  1 NonCon=     1 RMS=2.72D-03 Max=4.02D-02 NDo=     1
 LinEq1:  Iter=  2 NonCon=     1 RMS=1.02D-03 Max=1.41D-02 NDo=     1
 LinEq1:  Iter=  3 NonCon=     1 RMS=3.58D-04 Max=4.30D-03 NDo=     1
 LinEq1:  Iter=  4 NonCon=     1 RMS=9.23D-05 Max=1.11D-03 NDo=     1
 LinEq1:  Iter=  5 NonCon=     1 RMS=1.75D-05 Max=3.00D-04 NDo=     1
 LinEq1:  Iter=  6 NonCon=     1 RMS=4.38D-06 Max=3.45D-05 NDo=     1
 LinEq1:  Iter=  7 NonCon=     1 RMS=1.79D-06 Max=1.97D-05 NDo=     1
 LinEq1:  Iter=  8 NonCon=     1 RMS=4.08D-07 Max=4.25D-06 NDo=     1
 LinEq1:  Iter=  9 NonCon=     1 RMS=8.95D-08 Max=7.31D-07 NDo=     1
 LinEq1:  Iter= 10 NonCon=     1 RMS=2.07D-08 Max=1.64D-07 NDo=     1
 LinEq1:  Iter= 11 NonCon=     1 RMS=2.58D-09 Max=2.14D-08 NDo=     1
 LinEq1:  Iter= 12 NonCon=     1 RMS=3.80D-10 Max=5.17D-09 NDo=     1
 LinEq1:  Iter= 13 NonCon=     0 RMS=6.61D-11 Max=9.05D-10 NDo=     1
 Linear equations converged to 1.000D-10 1.000D-09 after    13 iterations.
 End of Minotr F.D. properties file   721 does not exist.
 End of Minotr F.D. properties file   722 does not exist.
 End of Minotr F.D. properties file   788 does not exist.

 **********************************************************************

            Population analysis using the SCF density.

 **********************************************************************

 Orbital symmetries:
       Occupied  (A) (A) (A) (A) (A) (A) (A) (A) (A) (A) (A) (A)
                 (A) (A) (A) (A) (A) (A) (A)
       Virtual   (A) (A) (A) (A) (A) (A) (A) (A) (A) (A) (A) (A)
                 (A) (A) (A) (A) (A) (A) (A) (A) (A) (A) (A) (A)
                 (A) (A) (A) (A) (A) (A) (A) (A) (A) (A) (A) (A)
                 (A) (A) (A) (A) (A) (A) (A) (A) (A) (A) (A) (A)
                 (A) (A) (A) (A) (A) (A) (A) (A)
 The electronic state is 1-A.
 Alpha  occ. eigenvalues --  -26.10768 -11.28123  -5.12881  -3.11803  -3.11803
 Alpha  occ. eigenvalues --   -3.11780  -1.32652  -0.95845  -0.69852  -0.69852
 Alpha  occ. eigenvalues --   -0.69025  -0.68680  -0.68680  -0.58323  -0.58323
 Alpha  occ. eigenvalues --   -0.46898  -0.46143  -0.46143  -0.42103
 Alpha virt. eigenvalues --    0.05388   0.07735   0.07735   0.15817   0.23765
 Alpha virt. eigenvalues --    0.23765   0.27008   0.31373   0.56636   0.56637
 Alpha virt. eigenvalues --    0.61121   0.61121   0.67733   0.75444   0.75446
 Alpha virt. eigenvalues --    0.77500   0.88424   0.88425   0.91242   0.99382
 Alpha virt. eigenvalues --    1.02394   1.02394   1.27495   1.43759   1.43760
 Alpha virt. eigenvalues --    1.63466   1.65379   1.65379   1.71128   1.76207
 Alpha virt. eigenvalues --    1.80817   1.80817   1.80859   1.80867   1.81510
 Alpha virt. eigenvalues --    1.81511   1.98980   2.01994   2.01995   2.22060
 Alpha virt. eigenvalues --    2.25396   2.25396   2.47828   2.61733   2.71398
 Alpha virt. eigenvalues --    2.71398   3.03806   3.22770   3.22771   3.64061
 Alpha virt. eigenvalues --    3.64061   3.64720   3.64720   3.75215  33.68614
 Alpha virt. eigenvalues --  121.65956
          Condensed to atoms (all electrons):
               1          2          3          4          5          6
     1  C    4.970613   0.325244   0.379787   0.379782   0.379781  -0.001053
     2  Hg   0.325244  18.833333  -0.037057  -0.037062  -0.037064   0.142145
     3  H    0.379787  -0.037057   0.581685  -0.010171  -0.010170   0.000021
     4  H    0.379782  -0.037062  -0.010171   0.581694  -0.010170   0.000021
     5  H    0.379781  -0.037064  -0.010170  -0.010170   0.581696   0.000021
     6  F   -0.001053   0.142145   0.000021   0.000021   0.000021   9.522869
 Mulliken charges:
               1
     1  C   -0.434154
     2  Hg   0.810461
     3  H    0.095906
     4  H    0.095906
     5  H    0.095905
     6  F   -0.664023
 Sum of Mulliken charges =  -0.00000
 Mulliken charges with hydrogens summed into heavy atoms:
               1
     1  C   -0.146438
     2  Hg   0.810461
     6  F   -0.664023
 Electronic spatial extent (au):  <R**2>=            440.3884
 Charge=             -0.0000 electrons
 Dipole moment (field-independent basis, Debye):
    X=              0.8139    Y=              2.0457    Z=             -5.9058  Tot=              6.3028
 Quadrupole moment (field-independent basis, Debye-Ang):
   XX=            -33.5141   YY=            -35.0547   ZZ=            -48.4798
   XY=             -0.7282   XZ=              2.1024   YZ=              5.2842
 Traceless Quadrupole moment (field-independent basis, Debye-Ang):
   XX=              5.5021   YY=              3.9615   ZZ=             -9.4636
   XY=             -0.7282   XZ=              2.1024   YZ=              5.2842
 Octapole moment (field-independent basis, Debye-Ang**2):
  XXX=             -1.2867  YYY=             -3.4299  ZZZ=            -19.3681  XYY=             -0.3730
  XXY=             -0.6092  XXZ=              3.7207  XZZ=              3.8111  YZZ=              9.4392
  YYZ=              0.0620  XYZ=             -1.5407
 Hexadecapole moment (field-independent basis, Debye-Ang**3):
 XXXX=            -43.3531 YYYY=            -81.2912 ZZZZ=           -462.2975 XXXY=             -7.3850
 XXXZ=             23.3132 YYYX=             -9.6782 YYYZ=             63.4788 ZZZX=             34.8105
 ZZZY=             88.5336 XXYY=            -19.7555 XXZZ=            -73.3986 YYZZ=            -85.3397
 XXYZ=             19.0600 YYXZ=              9.9233 ZZXY=             -6.5059
 N-N= 1.008976350340D+02 E-N=-8.528184571784D+02  KE= 1.894168409032D+02
 PrsmSu:  requested number of processors reduced to:  13 ShMem   1 Linda.
   1 Symmetry operations used in ECPInt.
 ECPInt:  NShTT=     561 NPrTT=    1759 LenC2=     553 LenP2D=    1509.
 LDataN:  DoStor=T MaxTD1= 9 Len=  602
 Calling FoFJK, ICntrl=  10002127 FMM=F ISym2X=0 I1Cent= 0 IOpClX= 0 NMat=1 NMatS=1 NMatT=0.
 ***** Axes restored to original set *****
 -------------------------------------------------------------------
 Center     Atomic                   Forces (Hartrees/Bohr)
 Number     Number              X              Y              Z
 -------------------------------------------------------------------
      1        6           0.011252962    0.011239805   -0.000003135
      2       80           0.034878330    0.034839463   -0.000004188
      3        1           0.003268684   -0.000105256    0.002673638
      4        1           0.002374195    0.000787520   -0.003398733
      5        1          -0.000896193    0.004058891    0.000728400
      6        9          -0.050877978   -0.050820423    0.000004017
 -------------------------------------------------------------------
 Cartesian Forces:  Max     0.050877978 RMS     0.020960270

 GradGradGradGradGradGradGradGradGradGradGradGradGradGradGradGradGradGrad
 Berny optimization.
 FormGI is forming the generalized inverse of G from B-inverse, IUseBI=4.
 Internal  Forces:  Max     0.071911640 RMS     0.018362219
 Search for a local minimum.
 Step number   1 out of a maximum of   27
 All quantities printed in internal units (Hartrees-Bohrs-Radians)
 Mixed Optimization -- RFO/linear search
 Second derivative matrix not updated -- first step.
 The second derivative matrix:
                          R1        R2        R3        R4        R5
           R1           0.14592
           R2           0.00000   0.34530
           R3           0.00000   0.00000   0.34529
           R4           0.00000   0.00000   0.00000   0.34530
           R5           0.00000   0.00000   0.00000   0.00000   0.08255
           A1           0.00000   0.00000   0.00000   0.00000   0.00000
           A2           0.00000   0.00000   0.00000   0.00000   0.00000
           A3           0.00000   0.00000   0.00000   0.00000   0.00000
           A4           0.00000   0.00000   0.00000   0.00000   0.00000
           A5           0.00000   0.00000   0.00000   0.00000   0.00000
           A6           0.00000   0.00000   0.00000   0.00000   0.00000
           A7           0.00000   0.00000   0.00000   0.00000   0.00000
           A8           0.00000   0.00000   0.00000   0.00000   0.00000
           D1           0.00000   0.00000   0.00000   0.00000   0.00000
           D2           0.00000   0.00000   0.00000   0.00000   0.00000
           D3           0.00000   0.00000   0.00000   0.00000   0.00000
           D4           0.00000   0.00000   0.00000   0.00000   0.00000
                          A1        A2        A3        A4        A5
           A1           0.16000
           A2           0.00000   0.16000
           A3           0.00000   0.00000   0.16000
           A4           0.00000   0.00000   0.00000   0.16000
           A5           0.00000   0.00000   0.00000   0.00000   0.16000
           A6           0.00000   0.00000   0.00000   0.00000   0.00000
           A7           0.00000   0.00000   0.00000   0.00000   0.00000
           A8           0.00000   0.00000   0.00000   0.00000   0.00000
           D1           0.00000   0.00000   0.00000   0.00000   0.00000
           D2           0.00000   0.00000   0.00000   0.00000   0.00000
           D3           0.00000   0.00000   0.00000   0.00000   0.00000
           D4           0.00000   0.00000   0.00000   0.00000   0.00000
                          A6        A7        A8        D1        D2
           A6           0.16000
           A7           0.00000   0.00230
           A8           0.00000   0.00000   0.00230
           D1           0.00000   0.00000   0.00000   0.00230
           D2           0.00000   0.00000   0.00000   0.00000   0.00230
           D3           0.00000   0.00000   0.00000   0.00000   0.00000
           D4           0.00000   0.00000   0.00000   0.00000   0.00000
                          D3        D4
           D3           0.00230
           D4           0.00000   0.00230
 ITU=  0
     Eigenvalues ---    0.00230   0.00230   0.05051   0.05656   0.08255
     Eigenvalues ---    0.08734   0.14592   0.16000   0.16000   0.34529
     Eigenvalues ---    0.34530   0.34530
 RFO step:  Lambda=-4.38928882D-02 EMin= 2.30000000D-03
 Linear search not attempted -- first point.
 Maximum step size (   0.300) exceeded in Quadratic search.
    -- Step size scaled by   0.515
 Iteration  1 RMS(Cart)=  0.05874530 RMS(Int)=  0.02259995
 Iteration  2 RMS(Cart)=  0.02063191 RMS(Int)=  0.00002956
 Iteration  3 RMS(Cart)=  0.00000002 RMS(Int)=  0.00002956
 Variable       Old X    -DE/DX   Delta X   Delta X   Delta X     New X
                                 (Linear)    (Quad)   (Total)
    R1        4.00098  -0.02261   0.00000  -0.06141  -0.06141   3.93957
    R2        2.06445   0.00266   0.00000   0.00352   0.00352   2.06797
    R3        2.06446   0.00266   0.00000   0.00352   0.00352   2.06798
    R4        2.06445   0.00266   0.00000   0.00352   0.00352   2.06798
    R5        4.47816  -0.07191   0.00000  -0.29318  -0.29318   4.18499
    A1        1.90193  -0.00073   0.00000  -0.00536  -0.00534   1.89659
    A2        1.90185  -0.00115   0.00000  -0.00612  -0.00611   1.89574
    A3        1.90182  -0.00226   0.00000  -0.00726  -0.00726   1.89457
    A4        1.91931   0.00027   0.00000   0.00480   0.00472   1.92403
    A5        1.91932   0.00179   0.00000   0.00674   0.00669   1.92601
    A6        1.91932   0.00201   0.00000   0.00685   0.00681   1.92613
    A7        3.14155   0.00000   0.00000   0.00002   0.00002   3.14158
    A8        3.14177  -0.00000   0.00000  -0.00002  -0.00002   3.14175
    D1        2.08363  -0.00144   0.00000  -0.00740  -0.00742   2.07621
    D2       -2.08363   0.00120   0.00000   0.00694   0.00696  -2.07666
    D3        2.08353  -0.00158   0.00000  -0.00781  -0.00783   2.07569
    D4       -2.11603  -0.00278   0.00000  -0.01475  -0.01479  -2.13083
         Item               Value     Threshold  Converged?
 Maximum Force            0.071912     0.000450     NO 
 RMS     Force            0.018362     0.000300     NO 
 Maximum Displacement     0.206087     0.001800     NO 
 RMS     Displacement     0.078824     0.001200     NO 
 Predicted change in Energy=-1.877830D-02
 GradGradGradGradGradGradGradGradGradGradGradGradGradGradGradGradGradGrad

                          Input orientation:                          
 ---------------------------------------------------------------------
 Center     Atomic      Atomic             Coordinates (Angstroms)
 Number     Number       Type             X           Y           Z
 ---------------------------------------------------------------------
      1          6           0       -4.848366    1.611812    0.000134
      2         80           0       -3.373426    3.085123    0.000068
      3          1           0       -4.608053    0.875663    0.773361
      4          1           0       -4.865605    1.134671   -0.984544
      5          1           0       -5.812553    2.084442    0.211112
      6          9           0       -1.806647    4.650259   -0.000131
 ---------------------------------------------------------------------
                    Distance matrix (angstroms):
                    1          2          3          4          5
     1  C    0.000000
     2  Hg   2.084728   0.000000
     3  H    1.094324   2.646507   0.000000
     4  H    1.094327   2.645812   1.795452   0.000000
     5  H    1.094325   2.644852   1.796689   1.796766   0.000000
     6  F    4.299327   2.214599   4.763795   4.762945   4.761861
                    6
     6  F    0.000000
 Stoichiometry    CH3FHg
 Framework group  C1[X(CH3FHg)]
 Deg. of freedom    12
 Full point group                 C1      NOp   1
 Largest Abelian subgroup         C1      NOp   1
 Largest concise Abelian subgroup C1      NOp   1
                         Standard orientation:                         
 ---------------------------------------------------------------------
 Center     Atomic      Atomic             Coordinates (Angstroms)
 Number     Number       Type             X           Y           Z
 ---------------------------------------------------------------------
      1          6           0        2.085963   -0.000079   -0.000044
      2         80           0        0.001235   -0.000001    0.000017
      3          1           0        2.436261    0.495014    0.910846
      4          1           0        2.435326    0.542277   -0.883983
      5          1           0        2.434076   -1.037197   -0.027461
      6          9           0       -2.213363    0.000050   -0.000056
 ---------------------------------------------------------------------
 Rotational constants (GHZ):         155.4080040           3.0728180           3.0727604
 Standard basis: def2SVP (5D, 7F)
 There are    82 symmetry adapted cartesian basis functions of A   symmetry.
 There are    75 symmetry adapted basis functions of A   symmetry.
    75 basis functions,   136 primitive gaussians,    82 cartesian basis functions
    19 alpha electrons       19 beta electrons
       nuclear repulsion energy       104.7061495105 Hartrees.
 NAtoms=    6 NActive=    6 NUniq=    6 SFac= 1.00D+00 NAtFMM=   60 NAOKFM=F Big=F
 Integral buffers will be    131072 words long.
 Raffenetti 1 integral format.
 Two-electron integral symmetry is turned on.
 One-electron integrals computed using PRISM.
 PrsmSu:  requested number of processors reduced to:  13 ShMem   1 Linda.
   1 Symmetry operations used in ECPInt.
 ECPInt:  NShTT=     561 NPrTT=    1759 LenC2=     554 LenP2D=    1523.
 LDataN:  DoStor=T MaxTD1= 8 Len=  415
 NBasis=    75 RedAO= T EigKep=  8.81D-03  NBF=    75
 NBsUse=    75 1.00D-06 EigRej= -1.00D+00 NBFU=    75
 Initial guess from the checkpoint file:  "ch3hgf_gas_apfd_def2svp.chk"
 B after Tr=    -0.000000   -0.000000   -0.000000
         Rot=    0.731663    0.170960    0.656319    0.068458 Ang=  85.95 deg.
 ExpMin= 5.64D-02 ExpMax= 2.89D+03 ExpMxC= 4.35D+02 IAcc=2 IRadAn=         4 AccDes= 0.00D+00
 Harris functional with IExCor=  205 and IRadAn=       4 diagonalized for initial guess.
 HarFok:  IExCor=  205 AccDes= 0.00D+00 IRadAn=         4 IDoV= 1 UseB2=F ITyADJ=14
 ICtDFT=  3500011 ScaDFX=  1.000000  1.000000  1.000000  1.000000
 Defaulting to unpruned grid for atomic number  80.
 FoFCou: FMM=F IPFlag=           0 FMFlag=      100000 FMFlg1=           0
         NFxFlg=           0 DoJE=T BraDBF=F KetDBF=T FulRan=T
         wScrn=  0.000000 ICntrl=       500 IOpCl=  0 I1Cent=   200000004 NGrid=           0
         NMat0=    1 NMatS0=      1 NMatT0=    0 NMatD0=    1 NMtDS0=    0 NMtDT0=    0
 Petite list used in FoFCou.
 Keep R1 ints in memory in canonical form, NReq=15771811.
 Requested convergence on RMS density matrix=1.00D-08 within  32 cycles.
 Requested convergence on MAX density matrix=1.00D-06.
 Requested convergence on             energy=1.00D-06.
 No special actions if energy rises.
 SCF Done:  E(RHF) =  -291.419692215     A.U. after   12 cycles
            NFock= 12  Conv=0.28D-08     -V/T= 2.5382
 QCSCF skips out because SCF is already converged.
 ExpMin= 5.64D-02 ExpMax= 2.89D+03 ExpMxC= 4.35D+02 IAcc=3 IRadAn=         5 AccDes= 0.00D+00
 HarFok:  IExCor=  205 AccDes= 0.00D+00 IRadAn=         5 IDoV=-2 UseB2=F ITyADJ=14
 ICtDFT= 12500011 ScaDFX=  1.000000  1.000000  1.000000  1.000000
 Defaulting to unpruned grid for atomic number  80.
 Range of M.O.s used for correlation:     3    75
 NBasis=    75 NAE=    19 NBE=    19 NFC=     2 NFV=     0
 NROrb=     73 NOA=    17 NOB=    17 NVA=    56 NVB=    56
 Disk-based method using ON**2 memory for 17 occupieds at a time.
 Estimated scratch disk usage=    17920867 words.
 Actual    scratch disk usage=    17138019 words.
 GetIJB would need an additional   279474277 words of memory to use all  24 processors.
 JobTyp=1 Pass  1:  I=   3 to  19 NPSUse=  6 ParTrn=T ParDer=T DoDerP=T.
 (rs|ai) integrals will be sorted in core.
 Spin components of T(2) and E(2):
     alpha-alpha T2 =       0.2829807457D-01 E2=     -0.1086219422D+00
     alpha-beta  T2 =       0.1360796019D+00 E2=     -0.4967404096D+00
     beta-beta   T2 =       0.2829807457D-01 E2=     -0.1086219422D+00
 ANorm=    0.1092096951D+01
 E2 =    -0.7139842939D+00 EUMP2 =    -0.29213367650893D+03
          IDoAtm=111111
          Differentiating once with respect to electric field.
                with respect to dipole field.
          Differentiating once with respect to nuclear coordinates.
 Keep R1 ints in memory in canonical form, NReq=15773526.
          There are     1 degrees of freedom in the 1st order CPHF.  IDoFFX=0 NUNeed=     1.
 LinEq1:  Iter=  0 NonCon=     1 RMS=1.05D-02 Max=2.23D-01 NDo=     1
 AX will form     1 AO Fock derivatives at one time.
 LinEq1:  Iter=  1 NonCon=     1 RMS=2.57D-03 Max=4.20D-02 NDo=     1
 LinEq1:  Iter=  2 NonCon=     1 RMS=9.03D-04 Max=1.24D-02 NDo=     1
 LinEq1:  Iter=  3 NonCon=     1 RMS=3.31D-04 Max=3.99D-03 NDo=     1
 LinEq1:  Iter=  4 NonCon=     1 RMS=7.91D-05 Max=1.03D-03 NDo=     1
 LinEq1:  Iter=  5 NonCon=     1 RMS=1.32D-05 Max=1.57D-04 NDo=     1
 LinEq1:  Iter=  6 NonCon=     1 RMS=3.18D-06 Max=2.40D-05 NDo=     1
 LinEq1:  Iter=  7 NonCon=     1 RMS=1.46D-06 Max=1.93D-05 NDo=     1
 LinEq1:  Iter=  8 NonCon=     1 RMS=3.38D-07 Max=3.22D-06 NDo=     1
 LinEq1:  Iter=  9 NonCon=     1 RMS=7.20D-08 Max=6.20D-07 NDo=     1
 LinEq1:  Iter= 10 NonCon=     1 RMS=1.73D-08 Max=1.54D-07 NDo=     1
 LinEq1:  Iter= 11 NonCon=     1 RMS=2.12D-09 Max=1.59D-08 NDo=     1
 LinEq1:  Iter= 12 NonCon=     1 RMS=2.89D-10 Max=3.20D-09 NDo=     1
 LinEq1:  Iter= 13 NonCon=     0 RMS=4.71D-11 Max=6.67D-10 NDo=     1
 Linear equations converged to 1.000D-10 1.000D-09 after    13 iterations.
 End of Minotr F.D. properties file   721 does not exist.
 End of Minotr F.D. properties file   722 does not exist.
 End of Minotr F.D. properties file   788 does not exist.
 PrsmSu:  requested number of processors reduced to:  13 ShMem   1 Linda.
   1 Symmetry operations used in ECPInt.
 ECPInt:  NShTT=     561 NPrTT=    1759 LenC2=     554 LenP2D=    1523.
 LDataN:  DoStor=T MaxTD1= 9 Len=  602
 Calling FoFJK, ICntrl=  10002127 FMM=F ISym2X=0 I1Cent= 0 IOpClX= 0 NMat=1 NMatS=1 NMatT=0.
 ***** Axes restored to original set *****
 -------------------------------------------------------------------
 Center     Atomic                   Forces (Hartrees/Bohr)
 Number     Number              X              Y              Z
 -------------------------------------------------------------------
      1        6           0.009772526    0.009679856   -0.000036909
      2       80           0.033393098    0.033263954    0.000006431
      3        1           0.001174037   -0.000257067    0.001291434
      4        1           0.000710353    0.000141293   -0.001576726
      5        1          -0.000732976    0.001431246    0.000310613
      6        9          -0.044317039   -0.044259281    0.000005157
 -------------------------------------------------------------------
 Cartesian Forces:  Max     0.044317039 RMS     0.018771257

 GradGradGradGradGradGradGradGradGradGradGradGradGradGradGradGradGradGrad
 Berny optimization.
 Using GEDIIS/GDIIS optimizer.
 FormGI is forming the generalized inverse of G from B-inverse, IUseBI=4.
 Internal  Forces:  Max     0.062632929 RMS     0.015664075
 Search for a local minimum.
 Step number   2 out of a maximum of   27
 All quantities printed in internal units (Hartrees-Bohrs-Radians)
 Mixed Optimization -- RFO/linear search
 Update second derivatives using D2CorX and points    1    2
 DE= -2.13D-02 DEPred=-1.88D-02 R= 1.14D+00
 TightC=F SS=  1.41D+00  RLast= 3.01D-01 DXNew= 5.0454D-01 9.0189D-01
 Trust test= 1.14D+00 RLast= 3.01D-01 DXMaxT set to 5.05D-01
 The second derivative matrix:
                          R1        R2        R3        R4        R5
           R1           0.15102
           R2          -0.00146   0.34564
           R3          -0.00145   0.00034   0.34563
           R4          -0.00150   0.00035   0.00035   0.34565
           R5          -0.00792   0.00007   0.00009   0.00002   0.03288
           A1          -0.00004  -0.00004  -0.00004  -0.00004  -0.00144
           A2           0.00054  -0.00016  -0.00015  -0.00016  -0.00089
           A3           0.00230  -0.00049  -0.00049  -0.00050   0.00111
           A4           0.00076  -0.00010  -0.00010  -0.00010   0.00222
           A5          -0.00159   0.00036   0.00035   0.00036  -0.00033
           A6          -0.00198   0.00043   0.00043   0.00044  -0.00081
           A7          -0.00008   0.00001   0.00001   0.00001  -0.00010
           A8           0.00001  -0.00000  -0.00000  -0.00000   0.00001
           D1           0.00210  -0.00039  -0.00039  -0.00040   0.00271
           D2          -0.00168   0.00031   0.00031   0.00032  -0.00216
           D3           0.00230  -0.00043  -0.00043  -0.00043   0.00297
           D4           0.00398  -0.00074  -0.00073  -0.00075   0.00513
                          A1        A2        A3        A4        A5
           A1           0.15996
           A2          -0.00001   0.16006
           A3           0.00010   0.00025   0.16068
           A4           0.00008   0.00008   0.00009   0.15993
           A5          -0.00006  -0.00017  -0.00051  -0.00008   0.16037
           A6          -0.00008  -0.00021  -0.00060  -0.00008   0.00044
           A7          -0.00000  -0.00001  -0.00002   0.00000   0.00001
           A8           0.00000   0.00000   0.00000  -0.00000  -0.00000
           D1           0.00013   0.00023   0.00050  -0.00001  -0.00038
           D2          -0.00010  -0.00018  -0.00040   0.00001   0.00031
           D3           0.00014   0.00025   0.00054  -0.00002  -0.00042
           D4           0.00024   0.00043   0.00094  -0.00003  -0.00073
                          A6        A7        A8        D1        D2
           A6           0.16053
           A7           0.00002   0.00230
           A8          -0.00000  -0.00000   0.00230
           D1          -0.00044  -0.00001   0.00000   0.00259
           D2           0.00035   0.00001  -0.00000  -0.00023   0.00248
           D3          -0.00048  -0.00001   0.00000   0.00032  -0.00025
           D4          -0.00084  -0.00002   0.00000   0.00055  -0.00044
                          D3        D4
           D3           0.00265
           D4           0.00060   0.00334
 ITU=  1  0
 Use linear search instead of GDIIS.
 Linear search step of   0.519 exceeds DXMaxT=   0.505 but not scaled.
 Quartic linear search produced a step of  1.73105.
 Iteration  1 RMS(Cart)=  0.07100757 RMS(Int)=  0.07458562
 Iteration  2 RMS(Cart)=  0.04428459 RMS(Int)=  0.02607871
 Iteration  3 RMS(Cart)=  0.02380616 RMS(Int)=  0.00013941
 Iteration  4 RMS(Cart)=  0.00000003 RMS(Int)=  0.00013941
 Variable       Old X    -DE/DX   Delta X   Delta X   Delta X     New X
                                 (Linear)    (Quad)   (Total)
    R1        3.93957  -0.01550  -0.10631   0.00000  -0.10631   3.83325
    R2        2.06797   0.00134   0.00610   0.00000   0.00610   2.07407
    R3        2.06798   0.00135   0.00609   0.00000   0.00609   2.07407
    R4        2.06798   0.00132   0.00610   0.00000   0.00610   2.07407
    R5        4.18499  -0.06263  -0.50750   0.00000  -0.50750   3.67748
    A1        1.89659  -0.00030  -0.00924   0.00000  -0.00913   1.88746
    A2        1.89574  -0.00038  -0.01057   0.00000  -0.01049   1.88525
    A3        1.89457  -0.00058  -0.01256   0.00000  -0.01254   1.88203
    A4        1.92403   0.00021   0.00818   0.00000   0.00781   1.93184
    A5        1.92601   0.00049   0.01158   0.00000   0.01136   1.93737
    A6        1.92613   0.00052   0.01179   0.00000   0.01158   1.93771
    A7        3.14158  -0.00003   0.00004   0.00000   0.00004   3.14162
    A8        3.14175   0.00000  -0.00003   0.00000  -0.00003   3.14172
    D1        2.07621  -0.00047  -0.01284   0.00000  -0.01292   2.06329
    D2       -2.07666   0.00043   0.01205   0.00000   0.01216  -2.06451
    D3        2.07569  -0.00052  -0.01356   0.00000  -0.01368   2.06201
    D4       -2.13083  -0.00094  -0.02561   0.00000  -0.02584  -2.15666
         Item               Value     Threshold  Converged?
 Maximum Force            0.062633     0.000450     NO 
 RMS     Force            0.015664     0.000300     NO 
 Maximum Displacement     0.356746     0.001800     NO 
 RMS     Displacement     0.136449     0.001200     NO 
 Predicted change in Energy=-2.864807D-02
 GradGradGradGradGradGradGradGradGradGradGradGradGradGradGradGradGradGrad

                          Input orientation:                          
 ---------------------------------------------------------------------
 Center     Atomic      Atomic             Coordinates (Angstroms)
 Number     Number       Type             X           Y           Z
 ---------------------------------------------------------------------
      1          6           0       -4.807028    1.653123    0.000336
      2         80           0       -3.372083    3.086868    0.000090
      3          1           0       -4.557076    0.919550    0.777519
      4          1           0       -4.815175    1.180830   -0.990367
      5          1           0       -5.767859    2.139270    0.212673
      6          9           0       -1.995428    4.462329   -0.000253
 ---------------------------------------------------------------------
                    Distance matrix (angstroms):
                    1          2          3          4          5
     1  C    0.000000
     2  Hg   2.028470   0.000000
     3  H    1.097552   2.589570   0.000000
     4  H    1.097551   2.587760   1.805631   0.000000
     5  H    1.097552   2.585126   1.809078   1.809287   0.000000
     6  F    3.974510   1.946040   4.440523   4.438416   4.435445
                    6
     6  F    0.000000
 Stoichiometry    CH3FHg
 Framework group  C1[X(CH3FHg)]
 Deg. of freedom    12
 Full point group                 C1      NOp   1
 Largest Abelian subgroup         C1      NOp   1
 Largest concise Abelian subgroup C1      NOp   1
                         Standard orientation:                         
 ---------------------------------------------------------------------
 Center     Atomic      Atomic             Coordinates (Angstroms)
 Number     Number       Type             X           Y           Z
 ---------------------------------------------------------------------
      1          6           0        2.010519   -0.000194   -0.000020
      2         80           0       -0.017951   -0.000016    0.000020
      3          1           0        2.352356    0.498842    0.915803
      4          1           0        2.350016    0.546356   -0.889201
      5          1           0        2.346533   -1.044679   -0.027740
      6          9           0       -1.963991    0.000210   -0.000040
 ---------------------------------------------------------------------
 Rotational constants (GHZ):         153.4043314           3.6153088           3.6150857
 Standard basis: def2SVP (5D, 7F)
 There are    82 symmetry adapted cartesian basis functions of A   symmetry.
 There are    75 symmetry adapted basis functions of A   symmetry.
    75 basis functions,   136 primitive gaussians,    82 cartesian basis functions
    19 alpha electrons       19 beta electrons
       nuclear repulsion energy       112.4880650175 Hartrees.
 NAtoms=    6 NActive=    6 NUniq=    6 SFac= 1.00D+00 NAtFMM=   60 NAOKFM=F Big=F
 Integral buffers will be    131072 words long.
 Raffenetti 1 integral format.
 Two-electron integral symmetry is turned on.
 One-electron integrals computed using PRISM.
 PrsmSu:  requested number of processors reduced to:  13 ShMem   1 Linda.
   1 Symmetry operations used in ECPInt.
 ECPInt:  NShTT=     561 NPrTT=    1759 LenC2=     560 LenP2D=    1556.
 LDataN:  DoStor=T MaxTD1= 8 Len=  415
 NBasis=    75 RedAO= T EigKep=  7.56D-03  NBF=    75
 NBsUse=    75 1.00D-06 EigRej= -1.00D+00 NBFU=    75
 Initial guess from the checkpoint file:  "ch3hgf_gas_apfd_def2svp.chk"
 B after Tr=     0.000000    0.000000    0.000000
         Rot=    1.000000    0.000026   -0.000016    0.000040 Ang=   0.01 deg.
 ExpMin= 5.64D-02 ExpMax= 2.89D+03 ExpMxC= 4.35D+02 IAcc=2 IRadAn=         4 AccDes= 0.00D+00
 Harris functional with IExCor=  205 and IRadAn=       4 diagonalized for initial guess.
 HarFok:  IExCor=  205 AccDes= 0.00D+00 IRadAn=         4 IDoV= 1 UseB2=F ITyADJ=14
 ICtDFT=  3500011 ScaDFX=  1.000000  1.000000  1.000000  1.000000
 Defaulting to unpruned grid for atomic number  80.
 FoFCou: FMM=F IPFlag=           0 FMFlag=      100000 FMFlg1=           0
         NFxFlg=           0 DoJE=T BraDBF=F KetDBF=T FulRan=T
         wScrn=  0.000000 ICntrl=       500 IOpCl=  0 I1Cent=   200000004 NGrid=           0
         NMat0=    1 NMatS0=      1 NMatT0=    0 NMatD0=    1 NMtDS0=    0 NMtDT0=    0
 Petite list used in FoFCou.
 Keep R1 ints in memory in canonical form, NReq=15772799.
 Requested convergence on RMS density matrix=1.00D-08 within  32 cycles.
 Requested convergence on MAX density matrix=1.00D-06.
 Requested convergence on             energy=1.00D-06.
 No special actions if energy rises.
 SCF Done:  E(RHF) =  -291.435950537     A.U. after   13 cycles
            NFock= 13  Conv=0.17D-08     -V/T= 2.5367
 QCSCF skips out because SCF is already converged.
 ExpMin= 5.64D-02 ExpMax= 2.89D+03 ExpMxC= 4.35D+02 IAcc=3 IRadAn=         5 AccDes= 0.00D+00
 HarFok:  IExCor=  205 AccDes= 0.00D+00 IRadAn=         5 IDoV=-2 UseB2=F ITyADJ=14
 ICtDFT= 12500011 ScaDFX=  1.000000  1.000000  1.000000  1.000000
 Defaulting to unpruned grid for atomic number  80.
 Range of M.O.s used for correlation:     3    75
 NBasis=    75 NAE=    19 NBE=    19 NFC=     2 NFV=     0
 NROrb=     73 NOA=    17 NOB=    17 NVA=    56 NVB=    56
 Disk-based method using ON**2 memory for 17 occupieds at a time.
 Estimated scratch disk usage=    18324269 words.
 Actual    scratch disk usage=    17590573 words.
 GetIJB would need an additional   279479317 words of memory to use all  24 processors.
 JobTyp=1 Pass  1:  I=   3 to  19 NPSUse=  6 ParTrn=T ParDer=T DoDerP=T.
 (rs|ai) integrals will be sorted in core.
 Spin components of T(2) and E(2):
     alpha-alpha T2 =       0.2827687286D-01 E2=     -0.1096789077D+00
     alpha-beta  T2 =       0.1333570675D+00 E2=     -0.4972391991D+00
     beta-beta   T2 =       0.2827687286D-01 E2=     -0.1096789077D+00
 ANorm=    0.1090830332D+01
 E2 =    -0.7165970146D+00 EUMP2 =    -0.29215254755196D+03
          IDoAtm=111111
          Differentiating once with respect to electric field.
                with respect to dipole field.
          Differentiating once with respect to nuclear coordinates.
 Keep R1 ints in memory in canonical form, NReq=15774046.
          There are     1 degrees of freedom in the 1st order CPHF.  IDoFFX=0 NUNeed=     1.
 LinEq1:  Iter=  0 NonCon=     1 RMS=9.31D-03 Max=1.40D-01 NDo=     1
 AX will form     1 AO Fock derivatives at one time.
 LinEq1:  Iter=  1 NonCon=     1 RMS=2.36D-03 Max=3.30D-02 NDo=     1
 LinEq1:  Iter=  2 NonCon=     1 RMS=7.52D-04 Max=8.04D-03 NDo=     1
 LinEq1:  Iter=  3 NonCon=     1 RMS=2.85D-04 Max=3.74D-03 NDo=     1
 LinEq1:  Iter=  4 NonCon=     1 RMS=6.36D-05 Max=7.44D-04 NDo=     1
 LinEq1:  Iter=  5 NonCon=     1 RMS=9.58D-06 Max=1.05D-04 NDo=     1
 LinEq1:  Iter=  6 NonCon=     1 RMS=2.27D-06 Max=2.15D-05 NDo=     1
 LinEq1:  Iter=  7 NonCon=     1 RMS=8.79D-07 Max=8.26D-06 NDo=     1
 LinEq1:  Iter=  8 NonCon=     1 RMS=1.71D-07 Max=1.44D-06 NDo=     1
 LinEq1:  Iter=  9 NonCon=     1 RMS=2.60D-08 Max=2.03D-07 NDo=     1
 LinEq1:  Iter= 10 NonCon=     1 RMS=6.38D-09 Max=5.43D-08 NDo=     1
 LinEq1:  Iter= 11 NonCon=     1 RMS=1.41D-09 Max=1.20D-08 NDo=     1
 LinEq1:  Iter= 12 NonCon=     1 RMS=1.70D-10 Max=1.71D-09 NDo=     1
 LinEq1:  Iter= 13 NonCon=     0 RMS=2.58D-11 Max=2.60D-10 NDo=     1
 Linear equations converged to 1.000D-10 1.000D-09 after    13 iterations.
 End of Minotr F.D. properties file   721 does not exist.
 End of Minotr F.D. properties file   722 does not exist.
 End of Minotr F.D. properties file   788 does not exist.
 PrsmSu:  requested number of processors reduced to:  13 ShMem   1 Linda.
   1 Symmetry operations used in ECPInt.
 ECPInt:  NShTT=     561 NPrTT=    1759 LenC2=     560 LenP2D=    1556.
 LDataN:  DoStor=T MaxTD1= 9 Len=  602
 Calling FoFJK, ICntrl=  10002127 FMM=F ISym2X=0 I1Cent= 0 IOpClX= 0 NMat=1 NMatS=1 NMatT=0.
 ***** Axes restored to original set *****
 -------------------------------------------------------------------
 Center     Atomic                   Forces (Hartrees/Bohr)
 Number     Number              X              Y              Z
 -------------------------------------------------------------------
      1        6           0.004617398    0.004355468   -0.000094564
      2       80          -0.004083596   -0.004388539    0.000041151
      3        1          -0.002690912   -0.000914858   -0.000960318
      4        1          -0.002464815   -0.001336760    0.001394068
      5        1          -0.000941608   -0.003325727   -0.000373778
      6        9           0.005563533    0.005610416   -0.000006559
 -------------------------------------------------------------------
 Cartesian Forces:  Max     0.005610416 RMS     0.003069188

 GradGradGradGradGradGradGradGradGradGradGradGradGradGradGradGradGradGrad
 Berny optimization.
 Using GEDIIS/GDIIS optimizer.
 FormGI is forming the generalized inverse of G from B-inverse, IUseBI=4.
 Internal  Forces:  Max     0.007901161 RMS     0.002368180
 Search for a local minimum.
 Step number   3 out of a maximum of   27
 All quantities printed in internal units (Hartrees-Bohrs-Radians)
 Mixed Optimization -- RFO/linear search
 Update second derivatives using D2CorX and points    2    3
 The second derivative matrix:
                          R1        R2        R3        R4        R5
           R1           0.14347
           R2           0.00049   0.34521
           R3           0.00049  -0.00008   0.34521
           R4           0.00048  -0.00008  -0.00008   0.34522
           R5           0.00416   0.00006   0.00009   0.00003   0.13748
           A1          -0.00061   0.00009   0.00009   0.00009  -0.00118
           A2          -0.00048   0.00008   0.00008   0.00008  -0.00044
           A3           0.00007   0.00002   0.00002   0.00002   0.00210
           A4           0.00080  -0.00010  -0.00010  -0.00010   0.00225
           A5           0.00013  -0.00004  -0.00004  -0.00003  -0.00103
           A6          -0.00000  -0.00002  -0.00002  -0.00002  -0.00161
           A7          -0.00004   0.00001   0.00001   0.00001  -0.00018
           A8           0.00001  -0.00000  -0.00000  -0.00000   0.00003
           D1           0.00081  -0.00009  -0.00009  -0.00009   0.00330
           D2          -0.00067   0.00008   0.00008   0.00008  -0.00275
           D3           0.00092  -0.00011  -0.00011  -0.00011   0.00375
           D4           0.00159  -0.00018  -0.00018  -0.00019   0.00650
                          A1        A2        A3        A4        A5
           A1           0.15992
           A2          -0.00008   0.15993
           A3          -0.00006  -0.00003   0.16008
           A4           0.00008   0.00009   0.00010   0.15993
           A5           0.00006   0.00004  -0.00004  -0.00009   0.16001
           A6           0.00006   0.00003  -0.00006  -0.00009   0.00003
           A7          -0.00000  -0.00000  -0.00001   0.00000   0.00001
           A8           0.00000   0.00000   0.00000  -0.00000  -0.00000
           D1           0.00004   0.00007   0.00015  -0.00001  -0.00011
           D2          -0.00003  -0.00006  -0.00012   0.00001   0.00010
           D3           0.00004   0.00008   0.00016  -0.00001  -0.00013
           D4           0.00008   0.00013   0.00029  -0.00002  -0.00023
                          A6        A7        A8        D1        D2
           A6           0.16005
           A7           0.00001   0.00230
           A8          -0.00000  -0.00000   0.00230
           D1          -0.00013  -0.00000   0.00000   0.00239
           D2           0.00011   0.00000  -0.00000  -0.00007   0.00236
           D3          -0.00015  -0.00001   0.00000   0.00010  -0.00008
           D4          -0.00026  -0.00001   0.00000   0.00017  -0.00014
                          D3        D4
           D3           0.00241
           D4           0.00019   0.00263
 ITU=  0  1  0
 Use linear search instead of GDIIS.
     Eigenvalues ---    0.00230   0.00230   0.04923   0.05616   0.08936
     Eigenvalues ---    0.13532   0.14546   0.16000   0.16094   0.34505
     Eigenvalues ---    0.34530   0.34530
 RFO step:  Lambda=-3.00970827D-04 EMin= 2.29999643D-03
 Quartic linear search produced a step of -0.06866.
 Iteration  1 RMS(Cart)=  0.02714135 RMS(Int)=  0.00057317
 Iteration  2 RMS(Cart)=  0.00055553 RMS(Int)=  0.00024710
 Iteration  3 RMS(Cart)=  0.00000016 RMS(Int)=  0.00024710
 Variable       Old X    -DE/DX   Delta X   Delta X   Delta X     New X
                                 (Linear)    (Quad)   (Total)
    R1        3.83325   0.00191   0.00730  -0.00046   0.00684   3.84009
    R2        2.07407  -0.00068  -0.00042  -0.00142  -0.00184   2.07223
    R3        2.07407  -0.00066  -0.00042  -0.00138  -0.00180   2.07227
    R4        2.07407  -0.00072  -0.00042  -0.00154  -0.00195   2.07212
    R5        3.67748   0.00790   0.03484  -0.00653   0.02831   3.70580
    A1        1.88746   0.00050   0.00063   0.01520   0.01600   1.90346
    A2        1.88525   0.00102   0.00072   0.01711   0.01796   1.90321
    A3        1.88203   0.00251   0.00086   0.02002   0.02090   1.90293
    A4        1.93184   0.00019  -0.00054  -0.01305  -0.01424   1.91760
    A5        1.93737  -0.00185  -0.00078  -0.01800  -0.01916   1.91821
    A6        1.93771  -0.00216  -0.00079  -0.01834  -0.01950   1.91821
    A7        3.14162  -0.00013  -0.00000  -0.04652  -0.04652   3.09510
    A8        3.14172   0.00002   0.00000   0.00665   0.00665   3.14837
    D1        2.06329   0.00134   0.00089   0.02128   0.02202   2.08531
    D2       -2.06451  -0.00108  -0.00083  -0.02035  -0.02100  -2.08551
    D3        2.06201   0.00154   0.00094   0.02247   0.02319   2.08520
    D4       -2.15666   0.00261   0.00177   0.04283   0.04419  -2.11247
         Item               Value     Threshold  Converged?
 Maximum Force            0.007901     0.000450     NO 
 RMS     Force            0.002368     0.000300     NO 
 Maximum Displacement     0.063471     0.001800     NO 
 RMS     Displacement     0.027119     0.001200     NO 
 Predicted change in Energy=-3.599513D-04
 GradGradGradGradGradGradGradGradGradGradGradGradGradGradGradGradGradGrad

                          Input orientation:                          
 ---------------------------------------------------------------------
 Center     Atomic      Atomic             Coordinates (Angstroms)
 Number     Number       Type             X           Y           Z
 ---------------------------------------------------------------------
      1          6           0       -4.801535    1.655931   -0.000226
      2         80           0       -3.341068    3.068870   -0.004837
      3          1           0       -4.577770    0.912142    0.773846
      4          1           0       -4.834383    1.172017   -0.983731
      5          1           0       -5.763844    2.137094    0.211422
      6          9           0       -1.996049    4.495916    0.003526
 ---------------------------------------------------------------------
                    Distance matrix (angstroms):
                    1          2          3          4          5
     1  C    0.000000
     2  Hg   2.032088   0.000000
     3  H    1.096577   2.605236   0.000000
     4  H    1.096600   2.605047   1.795122   0.000000
     5  H    1.096518   2.604768   1.795439   1.795456   0.000000
     6  F    3.992028   1.961022   4.483538   4.480973   4.450117
                    6
     6  F    0.000000
 Stoichiometry    CH3FHg
 Framework group  C1[X(CH3FHg)]
 Deg. of freedom    12
 Full point group                 C1      NOp   1
 Largest Abelian subgroup         C1      NOp   1
 Largest concise Abelian subgroup C1      NOp   1
                         Standard orientation:                         
 ---------------------------------------------------------------------
 Center     Atomic      Atomic             Coordinates (Angstroms)
 Number     Number       Type             X           Y           Z
 ---------------------------------------------------------------------
      1          6           0        2.014119   -0.035396   -0.000058
      2         80           0       -0.017489    0.008766    0.000018
      3          1           0        2.384627    0.529933    0.863427
      4          1           0        2.381878    0.418264   -0.928216
      5          1           0        2.349087   -1.077508    0.064384
      6          9           0       -1.977906   -0.039954   -0.000080
 ---------------------------------------------------------------------
 Rotational constants (GHZ):         152.5741162           3.5767328           3.5750967
 Standard basis: def2SVP (5D, 7F)
 There are    82 symmetry adapted cartesian basis functions of A   symmetry.
 There are    75 symmetry adapted basis functions of A   symmetry.
    75 basis functions,   136 primitive gaussians,    82 cartesian basis functions
    19 alpha electrons       19 beta electrons
       nuclear repulsion energy       111.9342096660 Hartrees.
 NAtoms=    6 NActive=    6 NUniq=    6 SFac= 1.00D+00 NAtFMM=   60 NAOKFM=F Big=F
 Integral buffers will be    131072 words long.
 Raffenetti 1 integral format.
 Two-electron integral symmetry is turned on.
 One-electron integrals computed using PRISM.
 PrsmSu:  requested number of processors reduced to:  13 ShMem   1 Linda.
   1 Symmetry operations used in ECPInt.
 ECPInt:  NShTT=     561 NPrTT=    1759 LenC2=     560 LenP2D=    1552.
 LDataN:  DoStor=T MaxTD1= 8 Len=  415
 NBasis=    75 RedAO= T EigKep=  7.69D-03  NBF=    75
 NBsUse=    75 1.00D-06 EigRej= -1.00D+00 NBFU=    75
 Initial guess from the checkpoint file:  "ch3hgf_gas_apfd_def2svp.chk"
 B after Tr=    -0.000000   -0.000000   -0.000000
         Rot=    0.999020    0.044258    0.000002    0.000406 Ang=   5.07 deg.
 ExpMin= 5.64D-02 ExpMax= 2.89D+03 ExpMxC= 4.35D+02 IAcc=2 IRadAn=         4 AccDes= 0.00D+00
 Harris functional with IExCor=  205 and IRadAn=       4 diagonalized for initial guess.
 HarFok:  IExCor=  205 AccDes= 0.00D+00 IRadAn=         4 IDoV= 1 UseB2=F ITyADJ=14
 ICtDFT=  3500011 ScaDFX=  1.000000  1.000000  1.000000  1.000000
 Defaulting to unpruned grid for atomic number  80.
 FoFCou: FMM=F IPFlag=           0 FMFlag=      100000 FMFlg1=           0
         NFxFlg=           0 DoJE=T BraDBF=F KetDBF=T FulRan=T
         wScrn=  0.000000 ICntrl=       500 IOpCl=  0 I1Cent=   200000004 NGrid=           0
         NMat0=    1 NMatS0=      1 NMatT0=    0 NMatD0=    1 NMtDS0=    0 NMtDT0=    0
 Petite list used in FoFCou.
 Keep R1 ints in memory in canonical form, NReq=15772682.
 Requested convergence on RMS density matrix=1.00D-08 within  32 cycles.
 Requested convergence on MAX density matrix=1.00D-06.
 Requested convergence on             energy=1.00D-06.
 No special actions if energy rises.
 SCF Done:  E(RHF) =  -291.436646668     A.U. after   11 cycles
            NFock= 11  Conv=0.46D-08     -V/T= 2.5368
 QCSCF skips out because SCF is already converged.
 ExpMin= 5.64D-02 ExpMax= 2.89D+03 ExpMxC= 4.35D+02 IAcc=3 IRadAn=         5 AccDes= 0.00D+00
 HarFok:  IExCor=  205 AccDes= 0.00D+00 IRadAn=         5 IDoV=-2 UseB2=F ITyADJ=14
 ICtDFT= 12500011 ScaDFX=  1.000000  1.000000  1.000000  1.000000
 Defaulting to unpruned grid for atomic number  80.
 Range of M.O.s used for correlation:     3    75
 NBasis=    75 NAE=    19 NBE=    19 NFC=     2 NFV=     0
 NROrb=     73 NOA=    17 NOB=    17 NVA=    56 NVB=    56
 Disk-based method using ON**2 memory for 17 occupieds at a time.
 Estimated scratch disk usage=    18324269 words.
 Actual    scratch disk usage=    17590573 words.
 GetIJB would need an additional   279477931 words of memory to use all  24 processors.
 JobTyp=1 Pass  1:  I=   3 to  19 NPSUse=  6 ParTrn=T ParDer=T DoDerP=T.
 (rs|ai) integrals will be sorted in core.
 Spin components of T(2) and E(2):
     alpha-alpha T2 =       0.2824798800D-01 E2=     -0.1095443829D+00
     alpha-beta  T2 =       0.1333885306D+00 E2=     -0.4970220265D+00
     beta-beta   T2 =       0.2824798800D-01 E2=     -0.1095443829D+00
 ANorm=    0.1090818274D+01
 E2 =    -0.7161107924D+00 EUMP2 =    -0.29215275746073D+03
          IDoAtm=111111
          Differentiating once with respect to electric field.
                with respect to dipole field.
          Differentiating once with respect to nuclear coordinates.
 Keep R1 ints in memory in canonical form, NReq=15774007.
          There are     1 degrees of freedom in the 1st order CPHF.  IDoFFX=0 NUNeed=     1.
 LinEq1:  Iter=  0 NonCon=     1 RMS=9.36D-03 Max=1.39D-01 NDo=     1
 AX will form     1 AO Fock derivatives at one time.
 LinEq1:  Iter=  1 NonCon=     1 RMS=2.36D-03 Max=3.24D-02 NDo=     1
 LinEq1:  Iter=  2 NonCon=     1 RMS=7.58D-04 Max=7.80D-03 NDo=     1
 LinEq1:  Iter=  3 NonCon=     1 RMS=2.88D-04 Max=3.56D-03 NDo=     1
 LinEq1:  Iter=  4 NonCon=     1 RMS=6.37D-05 Max=7.35D-04 NDo=     1
 LinEq1:  Iter=  5 NonCon=     1 RMS=9.59D-06 Max=1.04D-04 NDo=     1
 LinEq1:  Iter=  6 NonCon=     1 RMS=2.18D-06 Max=1.83D-05 NDo=     1
 LinEq1:  Iter=  7 NonCon=     1 RMS=8.16D-07 Max=7.42D-06 NDo=     1
 LinEq1:  Iter=  8 NonCon=     1 RMS=1.48D-07 Max=1.18D-06 NDo=     1
 LinEq1:  Iter=  9 NonCon=     1 RMS=2.75D-08 Max=2.21D-07 NDo=     1
 LinEq1:  Iter= 10 NonCon=     1 RMS=1.07D-08 Max=8.46D-08 NDo=     1
 LinEq1:  Iter= 11 NonCon=     1 RMS=2.27D-09 Max=2.04D-08 NDo=     1
 LinEq1:  Iter= 12 NonCon=     1 RMS=6.20D-10 Max=5.92D-09 NDo=     1
 LinEq1:  Iter= 13 NonCon=     1 RMS=1.40D-10 Max=1.33D-09 NDo=     1
 LinEq1:  Iter= 14 NonCon=     0 RMS=2.52D-11 Max=2.81D-10 NDo=     1
 Linear equations converged to 1.000D-10 1.000D-09 after    14 iterations.
 End of Minotr F.D. properties file   721 does not exist.
 End of Minotr F.D. properties file   722 does not exist.
 End of Minotr F.D. properties file   788 does not exist.
 PrsmSu:  requested number of processors reduced to:  13 ShMem   1 Linda.
   1 Symmetry operations used in ECPInt.
 ECPInt:  NShTT=     561 NPrTT=    1759 LenC2=     560 LenP2D=    1552.
 LDataN:  DoStor=T MaxTD1= 9 Len=  602
 Calling FoFJK, ICntrl=  10002127 FMM=F ISym2X=0 I1Cent= 0 IOpClX= 0 NMat=1 NMatS=1 NMatT=0.
 ***** Axes restored to original set *****
 -------------------------------------------------------------------
 Center     Atomic                   Forces (Hartrees/Bohr)
 Number     Number              X              Y              Z
 -------------------------------------------------------------------
      1        6           0.004254957    0.000877846   -0.000365362
      2       80          -0.003542613    0.001682571    0.000532305
      3        1          -0.000949331   -0.000832886   -0.000065935
      4        1          -0.000884507   -0.000818866    0.000089323
      5        1          -0.000425658   -0.000151045    0.000042103
      6        9           0.001547152   -0.000757621   -0.000232435
 -------------------------------------------------------------------
 Cartesian Forces:  Max     0.004254957 RMS     0.001508511

 GradGradGradGradGradGradGradGradGradGradGradGradGradGradGradGradGradGrad
 Berny optimization.
 Using GEDIIS/GDIIS optimizer.
 FormGI is forming the generalized inverse of G from B-inverse, IUseBI=4.
 Internal  Forces:  Max     0.006149631 RMS     0.001569391
 Search for a local minimum.
 Step number   4 out of a maximum of   27
 All quantities printed in internal units (Hartrees-Bohrs-Radians)
 Mixed Optimization -- RFO/linear search
 Update second derivatives using D2CorX and points    2    3    4
 DE= -2.10D-04 DEPred=-3.60D-04 R= 5.83D-01
 TightC=F SS=  1.41D+00  RLast= 9.19D-02 DXNew= 8.4853D-01 2.7576D-01
 Trust test= 5.83D-01 RLast= 9.19D-02 DXMaxT set to 5.05D-01
 The second derivative matrix:
                          R1        R2        R3        R4        R5
           R1           0.14946
           R2          -0.00144   0.34567
           R3          -0.00136   0.00034   0.34562
           R4          -0.00147   0.00035   0.00033   0.34563
           R5           0.01804  -0.00352  -0.00334  -0.00352   0.16800
           A1          -0.00528   0.00359   0.00349   0.00382  -0.01894
           A2          -0.00484   0.00364   0.00355   0.00390  -0.01817
           A3           0.00255   0.00099   0.00099   0.00119   0.00065
           A4           0.00619  -0.00372  -0.00362  -0.00395   0.02116
           A5           0.00098  -0.00224  -0.00220  -0.00247   0.00823
           A6           0.00038  -0.00207  -0.00204  -0.00230   0.00661
           A7          -0.01935   0.00818   0.00790   0.00844  -0.04918
           A8           0.00051  -0.00021  -0.00020  -0.00021   0.00129
           D1           0.00174  -0.00039  -0.00038  -0.00040   0.00541
           D2          -0.00292   0.00095   0.00092   0.00098  -0.00825
           D3           0.00389  -0.00127  -0.00123  -0.00130   0.01103
           D4           0.00681  -0.00222  -0.00215  -0.00228   0.01928
                          A1        A2        A3        A4        A5
           A1           0.14412
           A2          -0.01787   0.14001
           A3          -0.02047  -0.02193   0.14400
           A4           0.01408   0.01601   0.01967   0.14775
           A5           0.01893   0.02069   0.01863  -0.01764   0.14065
           A6           0.01931   0.02104   0.01840  -0.01807  -0.01940
           A7          -0.00115  -0.00371  -0.02447  -0.00233   0.01413
           A8          -0.00005   0.00001   0.00057   0.00014  -0.00029
           D1          -0.00072  -0.00065   0.00052   0.00086   0.00004
           D2           0.00050   0.00024  -0.00231  -0.00088   0.00106
           D3          -0.00061  -0.00027   0.00310   0.00112  -0.00144
           D4          -0.00111  -0.00051   0.00541   0.00201  -0.00250
                          A6        A7        A8        D1        D2
           A6           0.14059
           A7           0.01571   0.05362
           A8          -0.00033  -0.00142   0.00234
           D1          -0.00005  -0.00308   0.00008   0.00253
           D2           0.00125   0.00647  -0.00018  -0.00043   0.00315
           D3          -0.00170  -0.00850   0.00023   0.00057  -0.00112
           D4          -0.00296  -0.01497   0.00041   0.00099  -0.00197
                          D3        D4
           D3           0.00378
           D4           0.00260   0.00687
 ITU=  1  0  1  0
 Use linear search instead of GDIIS.
     Eigenvalues ---    0.00227   0.00292   0.04928   0.05593   0.08656
     Eigenvalues ---    0.13893   0.15149   0.15984   0.20534   0.34529
     Eigenvalues ---    0.34530   0.34759
 RFO step:  Lambda=-3.81141221D-03 EMin= 2.27457364D-03
 Quartic linear search produced a step of -0.23246.
 Maximum step size (   0.505) exceeded in Quadratic search.
    -- Step size scaled by   0.817
 Iteration  1 RMS(Cart)=  0.12948941 RMS(Int)=  0.05786059
 Iteration  2 RMS(Cart)=  0.09812362 RMS(Int)=  0.01346237
 Iteration  3 RMS(Cart)=  0.00003371 RMS(Int)=  0.01344626
 Iteration  4 RMS(Cart)=  0.00003357 RMS(Int)=  0.01343023
 Iteration  5 RMS(Cart)=  0.00003343 RMS(Int)=  0.01341427
 Iteration  6 RMS(Cart)=  0.00003330 RMS(Int)=  0.01339839
 Iteration  7 RMS(Cart)=  0.00003316 RMS(Int)=  0.01338259
 Iteration  8 RMS(Cart)=  0.00003303 RMS(Int)=  0.01336686
 Iteration  9 RMS(Cart)=  0.00003289 RMS(Int)=  0.01335121
 Iteration 10 RMS(Cart)=  0.00003276 RMS(Int)=  0.01333562
 Iteration 11 RMS(Cart)=  0.00003263 RMS(Int)=  0.01332012
 Iteration 12 RMS(Cart)=  0.00003250 RMS(Int)=  0.01330468
 Iteration 13 RMS(Cart)=  0.00003236 RMS(Int)=  0.01328932
 Iteration 14 RMS(Cart)=  0.00003223 RMS(Int)=  0.01327403
 Iteration 15 RMS(Cart)=  0.00003211 RMS(Int)=  0.01325882
 Iteration 16 RMS(Cart)=  0.00003198 RMS(Int)=  0.01324367
 Iteration 17 RMS(Cart)=  0.00003185 RMS(Int)=  0.01322859
 Iteration 18 RMS(Cart)=  0.00003172 RMS(Int)=  0.01321359
 Iteration 19 RMS(Cart)=  0.00003160 RMS(Int)=  0.01319865
 Iteration 20 RMS(Cart)=  0.00003147 RMS(Int)=  0.01318379
 Iteration 21 RMS(Cart)=  0.00003135 RMS(Int)=  0.01316899
 Iteration 22 RMS(Cart)=  0.00003123 RMS(Int)=  0.01315426
 Iteration 23 RMS(Cart)=  0.00003110 RMS(Int)=  0.01313960
 Iteration 24 RMS(Cart)=  0.00003098 RMS(Int)=  0.01312501
 Iteration 25 RMS(Cart)=  0.00003086 RMS(Int)=  0.01311048
 Iteration 26 RMS(Cart)=  0.00003074 RMS(Int)=  0.01309602
 Iteration 27 RMS(Cart)=  0.00003062 RMS(Int)=  0.01308163
 Iteration 28 RMS(Cart)=  0.00003050 RMS(Int)=  0.01306730
 Iteration 29 RMS(Cart)=  0.00003038 RMS(Int)=  0.01305304
 Iteration 30 RMS(Cart)=  0.00003027 RMS(Int)=  0.01303884
 Iteration 31 RMS(Cart)=  0.00003015 RMS(Int)=  0.01302471
 Iteration 32 RMS(Cart)=  0.00003003 RMS(Int)=  0.01301064
 Iteration 33 RMS(Cart)=  0.00002992 RMS(Int)=  0.01299663
 Iteration 34 RMS(Cart)=  0.00002981 RMS(Int)=  0.01298269
 Iteration 35 RMS(Cart)=  0.00002969 RMS(Int)=  0.01296881
 Iteration 36 RMS(Cart)=  0.00002958 RMS(Int)=  0.01295500
 Iteration 37 RMS(Cart)=  0.00002947 RMS(Int)=  0.01294124
 Iteration 38 RMS(Cart)=  0.00002935 RMS(Int)=  0.01292755
 Iteration 39 RMS(Cart)=  0.00002924 RMS(Int)=  0.01291392
 Iteration 40 RMS(Cart)=  0.00002913 RMS(Int)=  0.01290035
 Iteration 41 RMS(Cart)=  0.00002902 RMS(Int)=  0.01288684
 Iteration 42 RMS(Cart)=  0.00002891 RMS(Int)=  0.01287339
 Iteration 43 RMS(Cart)=  0.00002881 RMS(Int)=  0.01286000
 Iteration 44 RMS(Cart)=  0.00002870 RMS(Int)=  0.01284667
 Iteration 45 RMS(Cart)=  0.00002859 RMS(Int)=  0.01283340
 Iteration 46 RMS(Cart)=  0.00002848 RMS(Int)=  0.01282018
 Iteration 47 RMS(Cart)=  0.00002838 RMS(Int)=  0.01280703
 Iteration 48 RMS(Cart)=  0.00002827 RMS(Int)=  0.01279393
 Iteration 49 RMS(Cart)=  0.00002817 RMS(Int)=  0.01278089
 Iteration 50 RMS(Cart)=  0.00002806 RMS(Int)=  0.01276791
 Iteration 51 RMS(Cart)=  0.00002796 RMS(Int)=  0.01275498
 Iteration 52 RMS(Cart)=  0.00002786 RMS(Int)=  0.01274212
 Iteration 53 RMS(Cart)=  0.00002775 RMS(Int)=  0.01272930
 Iteration 54 RMS(Cart)=  0.00002765 RMS(Int)=  0.01271655
 Iteration 55 RMS(Cart)=  0.00002755 RMS(Int)=  0.01270385
 Iteration 56 RMS(Cart)=  0.00002745 RMS(Int)=  0.01269121
 Iteration 57 RMS(Cart)=  0.00002735 RMS(Int)=  0.01267861
 Iteration 58 RMS(Cart)=  0.00002725 RMS(Int)=  0.01266608
 Iteration 59 RMS(Cart)=  0.00002715 RMS(Int)=  0.01265360
 Iteration 60 RMS(Cart)=  0.00002706 RMS(Int)=  0.01264117
 Iteration 61 RMS(Cart)=  0.00002696 RMS(Int)=  0.01262879
 Iteration 62 RMS(Cart)=  0.00002686 RMS(Int)=  0.01261647
 Iteration 63 RMS(Cart)=  0.00002676 RMS(Int)=  0.01260420
 Iteration 64 RMS(Cart)=  0.00002667 RMS(Int)=  0.01259198
 Iteration 65 RMS(Cart)=  0.00002657 RMS(Int)=  0.01257981
 Iteration 66 RMS(Cart)=  0.00002648 RMS(Int)=  0.01256770
 Iteration 67 RMS(Cart)=  0.00002638 RMS(Int)=  0.01255564
 Iteration 68 RMS(Cart)=  0.00002629 RMS(Int)=  0.01254363
 Iteration 69 RMS(Cart)=  0.00002620 RMS(Int)=  0.01253167
 Iteration 70 RMS(Cart)=  0.00002610 RMS(Int)=  0.01251976
 Iteration 71 RMS(Cart)=  0.00002601 RMS(Int)=  0.01250790
 Iteration 72 RMS(Cart)=  0.00002592 RMS(Int)=  0.01249609
 Iteration 73 RMS(Cart)=  0.00002583 RMS(Int)=  0.01248433
 Iteration 74 RMS(Cart)=  0.00002574 RMS(Int)=  0.01247262
 Iteration 75 RMS(Cart)=  0.00002565 RMS(Int)=  0.01246096
 Iteration 76 RMS(Cart)=  0.00002556 RMS(Int)=  0.01244935
 Iteration 77 RMS(Cart)=  0.00002547 RMS(Int)=  0.01243779
 Iteration 78 RMS(Cart)=  0.00002538 RMS(Int)=  0.01242628
 Iteration 79 RMS(Cart)=  0.00002529 RMS(Int)=  0.01241481
 Iteration 80 RMS(Cart)=  0.00002520 RMS(Int)=  0.01240339
 Iteration 81 RMS(Cart)=  0.00002512 RMS(Int)=  0.01239202
 Iteration 82 RMS(Cart)=  0.00002503 RMS(Int)=  0.01238070
 Iteration 83 RMS(Cart)=  0.00002494 RMS(Int)=  0.01236942
 Iteration 84 RMS(Cart)=  0.00002486 RMS(Int)=  0.01235819
 Iteration 85 RMS(Cart)=  0.00002477 RMS(Int)=  0.01234700
 Iteration 86 RMS(Cart)=  0.00002469 RMS(Int)=  0.01233587
 Iteration 87 RMS(Cart)=  0.00002460 RMS(Int)=  0.01232477
 Iteration 88 RMS(Cart)=  0.00002452 RMS(Int)=  0.01231373
 Iteration 89 RMS(Cart)=  0.00002443 RMS(Int)=  0.01230273
 Iteration 90 RMS(Cart)=  0.00002435 RMS(Int)=  0.01229177
 Iteration 91 RMS(Cart)=  0.00002427 RMS(Int)=  0.01228086
 Iteration 92 RMS(Cart)=  0.00002419 RMS(Int)=  0.01226999
 Iteration 93 RMS(Cart)=  0.00002410 RMS(Int)=  0.01225917
 Iteration 94 RMS(Cart)=  0.00002402 RMS(Int)=  0.01224839
 Iteration 95 RMS(Cart)=  0.00002394 RMS(Int)=  0.01223766
 Iteration 96 RMS(Cart)=  0.00002386 RMS(Int)=  0.01222696
 Iteration 97 RMS(Cart)=  0.00002378 RMS(Int)=  0.01221632
 Iteration 98 RMS(Cart)=  0.00002370 RMS(Int)=  0.01220571
 Iteration 99 RMS(Cart)=  0.00002362 RMS(Int)=  0.01219515
 Iteration100 RMS(Cart)=  0.00002354 RMS(Int)=  0.01218463
 New curvilinear step not converged.
 ITry= 1 IFail=1 DXMaxC= 4.67D-01 DCOld= 1.00D+10 DXMaxT= 5.05D-01 DXLimC= 3.00D+00 Rises=F
 Iteration  1 RMS(Cart)=  0.12491917 RMS(Int)=  0.04705604
 Iteration  2 RMS(Cart)=  0.09037726 RMS(Int)=  0.00976422
 Iteration  3 RMS(Cart)=  0.00820064 RMS(Int)=  0.00652101
 Iteration  4 RMS(Cart)=  0.00001041 RMS(Int)=  0.00652100
 Iteration  5 RMS(Cart)=  0.00000016 RMS(Int)=  0.00652100
 ITry= 2 IFail=0 DXMaxC= 4.37D-01 DCOld= 1.00D+10 DXMaxT= 5.05D-01 DXLimC= 3.00D+00 Rises=F
 Variable       Old X    -DE/DX   Delta X   Delta X   Delta X     New X
                                 (Linear)    (Quad)   (Total)
    R1        3.84009  -0.00079  -0.00159   0.02699   0.02271   3.86279
    R2        2.07223   0.00032   0.00043  -0.01025  -0.00879   2.06344
    R3        2.07227   0.00031   0.00042  -0.00999  -0.00857   2.06370
    R4        2.07212   0.00032   0.00045  -0.01095  -0.00940   2.06272
    R5        3.70580   0.00051  -0.00658   0.11883   0.10036   3.80616
    A1        1.90346   0.00051  -0.00372   0.09536   0.08684   1.99031
    A2        1.90321   0.00073  -0.00418   0.10827   0.09616   1.99937
    A3        1.90293  -0.00033  -0.00486   0.12257   0.10380   2.00673
    A4        1.91760  -0.00024   0.00331  -0.08433  -0.08997   1.82763
    A5        1.91821  -0.00027   0.00445  -0.11723  -0.10933   1.80888
    A6        1.91821  -0.00039   0.00453  -0.11946  -0.11027   1.80793
    A7        3.09510   0.00615   0.01081   0.40896   0.37888   3.47398
    A8        3.14837  -0.00015  -0.00155   0.00266   0.00085   3.14922
    D1        2.08531   0.00093  -0.00512   0.13188   0.10789   2.19320
    D2       -2.08551  -0.00026   0.00488  -0.12094  -0.09842  -2.18393
    D3        2.08520   0.00046  -0.00539   0.13536   0.10953   2.19473
    D4       -2.11247   0.00072  -0.01027   0.25629   0.20795  -1.90453
         Item               Value     Threshold  Converged?
 Maximum Force            0.006150     0.000450     NO 
 RMS     Force            0.001569     0.000300     NO 
 Maximum Displacement     0.436762     0.001800     NO 
 RMS     Displacement     0.193552     0.001200     NO 
 Predicted change in Energy=-2.319605D-03
 GradGradGradGradGradGradGradGradGradGradGradGradGradGradGradGradGradGrad

                          Input orientation:                          
 ---------------------------------------------------------------------
 Center     Atomic      Atomic             Coordinates (Angstroms)
 Number     Number       Type             X           Y           Z
 ---------------------------------------------------------------------
      1          6           0       -4.784720    1.703600    0.002441
      2         80           0       -3.509032    3.299994    0.052500
      3          1           0       -4.559369    0.930898    0.740307
      4          1           0       -4.813109    1.175132   -0.952817
      5          1           0       -5.832089    1.944387    0.193511
      6          9           0       -1.816330    4.387958   -0.035942
 ---------------------------------------------------------------------
                    Distance matrix (angstroms):
                    1          2          3          4          5
     1  C    0.000000
     2  Hg   2.044103   0.000000
     3  H    1.091924   2.681213   0.000000
     4  H    1.092064   2.688181   1.729366   0.000000
     5  H    1.091544   2.693352   1.716380   1.715850   0.000000
     6  F    4.002322   2.014132   4.480858   4.488161   4.706379
                    6
     6  F    0.000000
 Stoichiometry    CH3FHg
 Framework group  C1[X(CH3FHg)]
 Deg. of freedom    12
 Full point group                 C1      NOp   1
 Largest Abelian subgroup         C1      NOp   1
 Largest concise Abelian subgroup C1      NOp   1
                         Standard orientation:                         
 ---------------------------------------------------------------------
 Center     Atomic      Atomic             Coordinates (Angstroms)
 Number     Number       Type             X           Y           Z
 ---------------------------------------------------------------------
      1          6           0        2.002434    0.252220   -0.000440
      2         80           0       -0.017105   -0.063727   -0.000019
      3          1           0        2.366134    0.806053    0.867482
      4          1           0        2.374167    0.811127   -0.861857
      5          1           0        2.610746   -0.654105   -0.000887
      6          9           0       -1.999698    0.291311   -0.000066
 ---------------------------------------------------------------------
 Rotational constants (GHZ):          79.6113118           3.5223358           3.4423455
 Standard basis: def2SVP (5D, 7F)
 There are    82 symmetry adapted cartesian basis functions of A   symmetry.
 There are    75 symmetry adapted basis functions of A   symmetry.
    75 basis functions,   136 primitive gaussians,    82 cartesian basis functions
    19 alpha electrons       19 beta electrons
       nuclear repulsion energy       110.0936155314 Hartrees.
 NAtoms=    6 NActive=    6 NUniq=    6 SFac= 1.00D+00 NAtFMM=   60 NAOKFM=F Big=F
 Integral buffers will be    131072 words long.
 Raffenetti 1 integral format.
 Two-electron integral symmetry is turned on.
 One-electron integrals computed using PRISM.
 PrsmSu:  requested number of processors reduced to:  13 ShMem   1 Linda.
   1 Symmetry operations used in ECPInt.
 ECPInt:  NShTT=     561 NPrTT=    1759 LenC2=     560 LenP2D=    1546.
 LDataN:  DoStor=T MaxTD1= 8 Len=  415
 NBasis=    75 RedAO= T EigKep=  8.52D-03  NBF=    75
 NBsUse=    75 1.00D-06 EigRej= -1.00D+00 NBFU=    75
 Initial guess from the checkpoint file:  "ch3hgf_gas_apfd_def2svp.chk"
 B after Tr=    -0.000000   -0.000000   -0.000000
         Rot=    1.000000    0.000000   -0.000000   -0.000000 Ang=   0.00 deg.
 ExpMin= 5.64D-02 ExpMax= 2.89D+03 ExpMxC= 4.35D+02 IAcc=2 IRadAn=         4 AccDes= 0.00D+00
 Harris functional with IExCor=  205 and IRadAn=       4 diagonalized for initial guess.
 HarFok:  IExCor=  205 AccDes= 0.00D+00 IRadAn=         4 IDoV= 1 UseB2=F ITyADJ=14
 ICtDFT=  3500011 ScaDFX=  1.000000  1.000000  1.000000  1.000000
 Defaulting to unpruned grid for atomic number  80.
 FoFCou: FMM=F IPFlag=           0 FMFlag=      100000 FMFlg1=           0
         NFxFlg=           0 DoJE=T BraDBF=F KetDBF=T FulRan=T
         wScrn=  0.000000 ICntrl=       500 IOpCl=  0 I1Cent=   200000004 NGrid=           0
         NMat0=    1 NMatS0=      1 NMatT0=    0 NMatD0=    1 NMtDS0=    0 NMtDT0=    0
 Petite list used in FoFCou.
 Keep R1 ints in memory in canonical form, NReq=15772370.
 Requested convergence on RMS density matrix=1.00D-08 within  32 cycles.
 Requested convergence on MAX density matrix=1.00D-06.
 Requested convergence on             energy=1.00D-06.
 No special actions if energy rises.
 SCF Done:  E(RHF) =  -291.427851801     A.U. after    1 cycles
            NFock=  1  Conv=0.53D-09     -V/T= 2.5369
 QCSCF skips out because SCF is already converged.
 ExpMin= 5.64D-02 ExpMax= 2.89D+03 ExpMxC= 4.35D+02 IAcc=3 IRadAn=         5 AccDes= 0.00D+00
 HarFok:  IExCor=  205 AccDes= 0.00D+00 IRadAn=         5 IDoV=-2 UseB2=F ITyADJ=14
[...]
     5   1     0.53  -0.14  -0.17     0.17  -0.54   0.33     0.27   0.22  -0.35
     6   9    -0.01  -0.00  -0.00    -0.00  -0.00   0.00    -0.00   0.00   0.00
                     10                     11                     12
                      A                      A                      A
 Frequencies --   3116.6226              3246.9656              3247.2367
 Red. masses --      1.0314                 1.1058                 1.1059
 Frc consts  --      5.9025                 6.8691                 6.8704
 IR Inten    --      4.8028                 0.8277                 0.8239
  Atom  AN      X      Y      Z        X      Y      Z        X      Y      Z
     1   6     0.05  -0.00  -0.00    -0.00   0.06  -0.07    -0.00  -0.07  -0.06
     2  80    -0.00  -0.00  -0.00     0.00  -0.00   0.00     0.00   0.00   0.00
     3   1    -0.18  -0.19   0.51    -0.25  -0.25   0.67    -0.10  -0.11   0.25
     4   1    -0.18   0.54  -0.09     0.21  -0.59   0.09    -0.17   0.47  -0.09
     5   1    -0.18  -0.35  -0.42     0.04   0.09   0.08     0.27   0.48   0.59
     6   9     0.00   0.00  -0.00    -0.00   0.00  -0.00     0.00  -0.00  -0.00

 -------------------
 - Thermochemistry -
 -------------------
 Temperature   298.150 Kelvin.  Pressure   1.00000 Atm.
 Atom     1 has atomic number  6 and mass  12.00000
 Atom     2 has atomic number 80 and mass 201.97060
 Atom     3 has atomic number  1 and mass   1.00783
 Atom     4 has atomic number  1 and mass   1.00783
 Atom     5 has atomic number  1 and mass   1.00783
 Atom     6 has atomic number  9 and mass  18.99840
 Molecular mass:   235.99248 amu.
 Principal axes and moments of inertia in atomic units:
                           1         2         3
     Eigenvalues --    11.54289 504.35606 504.35642
           X            1.00000  -0.00005  -0.00002
           Y            0.00005   0.99962  -0.02739
           Z            0.00002   0.02739   0.99962
 This molecule is an asymmetric top.
 Rotational symmetry number  1.
 Rotational temperatures (Kelvin)      7.50366     0.17173     0.17173
 Rotational constants (GHZ):         156.35096     3.57831     3.57831
 Zero-point vibrational energy     102197.2 (Joules/Mol)
                                   24.42572 (Kcal/Mol)
 Warning -- explicit consideration of   3 degrees of freedom as
           vibrations may cause significant error
 Vibrational temperatures:    245.49   245.53   830.44   894.95  1233.42
          (Kelvin)           1233.62  1845.10  2113.29  2113.35  4484.12
                             4671.66  4672.05
 
 Zero-point correction=                           0.038925 (Hartree/Particle)
 Thermal correction to Energy=                    0.043445
 Thermal correction to Enthalpy=                  0.044389
 Thermal correction to Gibbs Free Energy=         0.010643
 Sum of electronic and zero-point Energies=           -292.114006
 Sum of electronic and thermal Energies=              -292.109486
 Sum of electronic and thermal Enthalpies=            -292.108542
 Sum of electronic and thermal Free Energies=         -292.142289
 
                     E (Thermal)             CV                S
                      KCal/Mol        Cal/Mol-Kelvin    Cal/Mol-Kelvin
 Total                   27.262             13.231             71.026
 Electronic               0.000              0.000              0.000
 Translational            0.889              2.981             42.277
 Rotational               0.889              2.981             22.600
 Vibrational             25.485              7.269              6.148
 Vibration     1          0.626              1.879              2.429
 Vibration     2          0.626              1.879              2.428
 Vibration     3          0.934              1.081              0.491
                       Q            Log10(Q)             Ln(Q)
 Total Bot       0.127269D-04         -4.895278        -11.271794
 Total V=0       0.102070D+14         13.008897         29.954093
 Vib (Bot)       0.460448D-17        -17.336819        -39.919501
 Vib (Bot)    1  0.118088D+01          0.072206          0.166260
 Vib (Bot)    2  0.118068D+01          0.072133          0.166092
 Vib (Bot)    3  0.264755D+00         -0.577155         -1.328949
 Vib (V=0)       0.369280D+01          0.567356          1.306385
 Vib (V=0)    1  0.178237D+01          0.250998          0.577945
 Vib (V=0)    2  0.178219D+01          0.250954          0.577843
 Vib (V=0)    3  0.106577D+01          0.027663          0.063697
 Electronic      0.100000D+01          0.000000          0.000000
 Translational   0.142495D+09          8.153801         18.774821
 Rotational      0.193973D+05          4.287740          9.872887
 ***** Axes restored to original set *****
 -------------------------------------------------------------------
 Center     Atomic                   Forces (Hartrees/Bohr)
 Number     Number              X              Y              Z
 -------------------------------------------------------------------
      1        6          -0.000026892   -0.000078645    0.000032470
      2       80           0.000049368    0.000038115   -0.000047205
      3        1          -0.000031473   -0.000001832   -0.000024834
      4        1          -0.000013525   -0.000000280    0.000021093
      5        1           0.000008379    0.000007894   -0.000003334
      6        9           0.000014142    0.000034749    0.000021809
 -------------------------------------------------------------------
 Cartesian Forces:  Max     0.000078645 RMS     0.000031925
 FormGI is forming the generalized inverse of G from B-inverse, IUseBI=4.

 GradGradGradGradGradGradGradGradGradGradGradGradGradGradGradGradGradGrad
 Berny optimization.
 Internal  Forces:  Max     0.000096428 RMS     0.000033903
 Search for a local minimum.
 Step number   1 out of a maximum of    2
 All quantities printed in internal units (Hartrees-Bohrs-Radians)
 Second derivative matrix not updated -- analytic derivatives used.
 The second derivative matrix:
                          R1        R2        R3        R4        R5
           R1           0.18891
           R2           0.00226   0.36298
           R3           0.00226  -0.00078   0.36300
           R4           0.00225  -0.00078  -0.00078   0.36307
           R5           0.00077   0.00065   0.00064   0.00064   0.23971
           A1           0.00289  -0.00025  -0.00051  -0.00159   0.00082
           A2           0.00451  -0.00005   0.00029  -0.00390   0.00128
           A3           0.00879  -0.00340  -0.00344  -0.00033   0.00251
           A4          -0.00119   0.00337   0.00340  -0.00581  -0.00034
           A5          -0.00708   0.00622  -0.00564   0.00519  -0.00202
           A6          -0.00797  -0.00587   0.00591   0.00645  -0.00227
           A7          -0.00002   0.00033   0.00032  -0.00065  -0.00004
           A8          -0.00002  -0.00022   0.00022   0.00002  -0.00002
           D1           0.00556   0.00174   0.00165  -0.00790   0.00158
           D2          -0.00457  -0.00144   0.00620  -0.00105  -0.00130
           D3           0.00601  -0.00577   0.00188  -0.00101   0.00171
           D4           0.01057  -0.00433  -0.00432   0.00004   0.00301
                          A1        A2        A3        A4        A5
           A1           0.01796
           A2          -0.00806   0.03393
           A3          -0.01160  -0.02000   0.06597
           A4          -0.00806  -0.00148   0.02302   0.03625
           A5          -0.01259   0.02296  -0.03272  -0.02195   0.07056
           A6           0.02236  -0.02737  -0.02478  -0.02780  -0.02617
           A7           0.00640   0.00963  -0.02152  -0.00433   0.00580
           A8          -0.00366   0.00486  -0.00062   0.00039   0.00215
           D1           0.01212   0.00998  -0.01231   0.01149  -0.01486
           D2          -0.00716   0.00801  -0.00607   0.00929  -0.00794
           D3          -0.00323   0.01248   0.00067  -0.00482  -0.00803
           D4           0.00393   0.00447   0.00675  -0.01411  -0.00009
                          A6        A7        A8        D1        D2
           A6           0.08385
           A7           0.00404   0.13325
           A8          -0.00311  -0.00006   0.02088
           D1          -0.00644   0.01108  -0.00127   0.02802
           D2           0.00390   0.00177   0.00355   0.00184   0.01739
           D3           0.00289   0.00110   0.00366   0.00072   0.00849
           D4          -0.00101  -0.00068   0.00010  -0.00112  -0.00890
                          D3        D4
           D3           0.01749
           D4           0.00900   0.01790
 ITU=  0
     Eigenvalues ---    0.01827   0.03546   0.04018   0.05828   0.10678
     Eigenvalues ---    0.12652   0.15220   0.19258   0.23995   0.36184
     Eigenvalues ---    0.36450   0.36453
 Angle between quadratic step and forces=  42.61 degrees.
 Linear search not attempted -- first point.
 Iteration  1 RMS(Cart)=  0.00062805 RMS(Int)=  0.00000062
 Iteration  2 RMS(Cart)=  0.00000052 RMS(Int)=  0.00000003
 Variable       Old X    -DE/DX   Delta X   Delta X   Delta X     New X
                                 (Linear)    (Quad)   (Total)
    R1        3.83114   0.00010   0.00000   0.00049   0.00049   3.83163
    R2        2.07374  -0.00002   0.00000  -0.00007  -0.00007   2.07367
    R3        2.07372  -0.00002   0.00000  -0.00005  -0.00005   2.07367
    R4        2.07366  -0.00000   0.00000   0.00000   0.00000   2.07367
    R5        3.70659   0.00003   0.00000   0.00014   0.00014   3.70673
    A1        1.91202   0.00002   0.00000   0.00042   0.00042   1.91243
    A2        1.91215   0.00001   0.00000   0.00028   0.00028   1.91243
    A3        1.91297  -0.00003   0.00000  -0.00054  -0.00054   1.91243
    A4        1.90886  -0.00001   0.00000  -0.00003  -0.00003   1.90883
    A5        1.90886   0.00000   0.00000  -0.00003  -0.00003   1.90883
    A6        1.90893  -0.00000   0.00000  -0.00010  -0.00010   1.90883
    A7        3.14229  -0.00007   0.00000  -0.00070  -0.00070   3.14159
    A8        3.14283  -0.00003   0.00000  -0.00124  -0.00124   3.14159
    D1        2.09593   0.00003   0.00000   0.00067   0.00067   2.09660
    D2       -2.09643  -0.00001   0.00000  -0.00016  -0.00016  -2.09660
    D3        2.09664  -0.00000   0.00000  -0.00004  -0.00004   2.09660
    D4       -2.09011   0.00001   0.00000   0.00012   0.00012  -2.08999
         Item               Value     Threshold  Converged?
 Maximum Force            0.000096     0.000450     YES
 RMS     Force            0.000034     0.000300     YES
 Maximum Displacement     0.001029     0.001800     YES
 RMS     Displacement     0.000628     0.001200     YES
 Predicted change in Energy=-9.393322D-08
 Optimization completed.
    -- Stationary point found.
                           ----------------------------
                           !   Optimized Parameters   !
                           ! (Angstroms and Degrees)  !
 --------------------------                            --------------------------
 ! Name  Definition              Value          Derivative Info.                !
 --------------------------------------------------------------------------------
 ! R1    R(1,2)                  2.0274         -DE/DX =    0.0001              !
 ! R2    R(1,3)                  1.0974         -DE/DX =    0.0                 !
 ! R3    R(1,4)                  1.0974         -DE/DX =    0.0                 !
 ! R4    R(1,5)                  1.0973         -DE/DX =    0.0                 !
 ! R5    R(2,6)                  1.9614         -DE/DX =    0.0                 !
 ! A1    A(2,1,3)              109.5504         -DE/DX =    0.0                 !
 ! A2    A(2,1,4)              109.5581         -DE/DX =    0.0                 !
 ! A3    A(2,1,5)              109.6053         -DE/DX =    0.0                 !
 ! A4    A(3,1,4)              109.3698         -DE/DX =    0.0                 !
 ! A5    A(3,1,5)              109.3695         -DE/DX =    0.0                 !
 ! A6    A(4,1,5)              109.3737         -DE/DX =    0.0                 !
 ! A7    L(1,2,6,5,-1)         180.04           -DE/DX =   -0.0001              !
 ! A8    L(1,2,6,5,-2)         180.0708         -DE/DX =    0.0                 !
 ! D1    D(2,1,4,3)            120.088          -DE/DX =    0.0                 !
 ! D2    D(2,1,5,3)           -120.1167         -DE/DX =    0.0                 !
 ! D3    D(2,1,5,4)            120.1287         -DE/DX =    0.0                 !
 ! D4    D(3,1,5,4)           -119.7546         -DE/DX =    0.0                 !
 --------------------------------------------------------------------------------
 GradGradGradGradGradGradGradGradGradGradGradGradGradGradGradGradGradGrad


 ----------------------------------------------------------------------

 Electric dipole moment (input orientation):
 (Debye = 10**-18 statcoulomb cm , SI units = C m)
                  (au)            (Debye)         (10**-30 SI)
   Tot        0.142148D+01      0.361305D+01      0.120518D+02
   x         -0.100561D+01     -0.255602D+01     -0.852596D+01
   y         -0.100466D+01     -0.255360D+01     -0.851790D+01
   z          0.344758D-03      0.876288D-03      0.292298D-02

 Dipole polarizability, Alpha (input orientation).
 (esu units = cm**3 , SI units = C**2 m**2 J**-1)
 Alpha(0;0):
               (au)            (10**-24 esu)      (10**-40 SI)
   iso        0.378357D+02      0.560667D+01      0.623826D+01
   aniso      0.224909D+02      0.333280D+01      0.370824D+01
   xx         0.415895D+02      0.616293D+01      0.685719D+01
   yx         0.112456D+02      0.166642D+01      0.185414D+01
   yy         0.415785D+02      0.616130D+01      0.685537D+01
   zx         0.224662D-02      0.332915D-03      0.370418D-03
   zy         0.211507D-02      0.313422D-03      0.348729D-03
   zz         0.303390D+02      0.449578D+01      0.500223D+01

 ----------------------------------------------------------------------

 Dipole orientation:
     6         -6.10029313          6.10443862          4.19568915
    80         -6.09983610          6.10711223          0.36455255
     1         -4.14921980          6.21269694          4.88994609
     1         -6.98104808          4.35958797          4.88856883
     1         -7.16990251          7.73859820          4.89249611
     9         -6.09949461          6.10654264         -3.34203596

 Electric dipole moment (dipole orientation):
 (Debye = 10**-18 statcoulomb cm , SI units = C m)
                  (au)            (Debye)         (10**-30 SI)
   Tot        0.142148D+01      0.361305D+01      0.120518D+02
   x          0.000000D+00      0.000000D+00      0.000000D+00
   y          0.000000D+00      0.000000D+00      0.000000D+00
   z          0.142148D+01      0.361305D+01      0.120518D+02

 Dipole polarizability, Alpha (dipole orientation).
 (esu units = cm**3 , SI units = C**2 m**2 J**-1)
 Alpha(0;0):
               (au)            (10**-24 esu)      (10**-40 SI)
   iso        0.378357D+02      0.560667D+01      0.623826D+01
   aniso      0.224909D+02      0.333280D+01      0.370824D+01
   xx         0.303388D+02      0.449575D+01      0.500220D+01
   yx         0.288120D-03      0.426950D-04      0.475046D-04
   yy         0.303386D+02      0.449572D+01      0.500217D+01
   zx        -0.242306D-02     -0.359061D-03     -0.399509D-03
   zy        -0.965628D-02     -0.143091D-02     -0.159211D-02
   zz         0.528296D+02      0.782854D+01      0.871042D+01

 ----------------------------------------------------------------------

 Test job not archived.
 1\1\GINC-GRANADO-COMPUTE-16\Freq\RMP2-FC\def2SVP\C1H3F1Hg1\ROOT\13-Aug
 -2023\0\\#N Geom=AllCheck Guess=TCheck SCRF=Check Test GenChk RMP2(FC)
 /def2SVP Freq\\Optimization MeHgCl-apfd-def2svp-gas phase\\0,1\C,-4.79
 84109898,1.6615394868,-0.0000701322\Hg,-3.3647665545,3.0950017191,0.00
 06092111\H,-4.5710823531,0.914453604,0.7709155654\H,-4.8291170596,1.17
 31620574,-0.982289846\H,-5.7743512499,2.1167597001,0.2107868975\F,-1.9
 769207931,4.4810534326,0.0000483042\\Version=EM64L-G16RevA.03\State=1-
 A\HF=-291.4367602\MP2=-292.1529314\RMSD=6.775e-09\RMSF=3.193e-05\ZeroP
 oint=0.0389249\Thermal=0.043445\Dipole=-1.005615,-1.0046643,0.0003448\
 DipoleDeriv=-0.0646096,0.0883477,0.0000762,0.0885071,-0.0644055,0.0000
 748,0.0000035,0.000002,-0.1529861,0.9423087,0.5162665,-0.0001035,0.516
 1401,0.9411466,-0.0001108,-0.0001574,-0.0001646,0.4255461,0.022247,-0.
 0721755,0.023725,-0.025642,-0.0533938,0.0729224,-0.0131155,0.0359865,0
 .0255711,0.0142896,-0.0719356,-0.0468567,-0.0500848,-0.0211782,-0.0763
 202,0.0001403,-0.029256,0.0013608,-0.0889587,0.0032644,0.0230584,-0.06
 53357,0.0220227,0.0033337,0.0129332,-0.0067631,0.0615708,-0.825277,-0.
 4637674,0.0001005,-0.4635847,-0.8241917,0.0001,0.0001958,0.0001952,-0.
 3610627\Polar=41.5895339,11.2455754,41.5784976,0.0022466,0.0021151,30.
 3390137\PG=C01 [X(C1H3F1Hg1)]\NImag=0\\0.46366401,-0.10348537,0.463216
 48,-0.00011345,-0.00003441,0.56683115,-0.10249790,-0.05870353,-0.00002
 794,0.24381937,-0.05866156,-0.10246051,-0.00003615,0.18338243,0.243565
 61,0.00000230,-0.00000593,-0.04378803,-0.00000334,-0.00000217,0.060312
 74,-0.05172380,0.04287655,-0.03792040,0.00285313,-0.01284486,0.0131819
 9,0.05696535,0.05156551,-0.18186261,0.14778393,0.00236959,-0.01038720,
 0.00932515,-0.04751887,0.18918985,-0.04479146,0.14089949,-0.19358814,0
 .00115279,-0.00272275,0.00209801,0.04762702,-0.15226038,0.20243816,-0.
 04049661,-0.00050656,-0.01432569,-0.00160231,-0.00785288,-0.01549543,-
 0.00127317,-0.00362554,-0.00587583,0.04279552,0.00357417,-0.10153939,-
 0.12547025,-0.00070727,-0.00782321,-0.01319064,0.00025949,0.01122220,0
 .02094070,0.00165723,0.10480998,-0.00557013,-0.11670518,-0.28516369,-0
 .00016166,0.00215100,0.00399082,0.00081617,-0.01217983,-0.01576064,0.0
 0675147,0.12637448,0.30100183,-0.28059863,0.12148847,0.05237069,-0.012
 04019,0.00452277,0.00229430,-0.00355021,-0.00022887,0.00263803,0.00292
 763,-0.00250167,-0.00249148,0.29359413,0.10872087,-0.08901983,-0.02226
 136,-0.01781835,0.00738131,0.00385393,0.01792512,-0.00753535,-0.006986
 86,0.01173127,-0.00556121,0.00022996,-0.12060941,0.09895184,0.05048659
 ,-0.02414160,-0.05764098,-0.00100225,0.00056821,-0.00074344,-0.0214862
 2,0.00867342,0.00527350,0.02641272,-0.01066320,-0.00317644,-0.05450224
 ,0.02582715,0.05610390,0.01165293,-0.00166957,0.00001679,-0.13053209,-
 0.10854590,0.00002019,-0.00327130,-0.00256182,-0.00075055,-0.00235107,
 -0.00228195,0.00065562,-0.00033273,0.00005051,0.00009140,0.12483426,-0
 .00171363,0.01166586,0.00001824,-0.10852287,-0.13027600,0.00001967,-0.
 00069743,-0.00062690,0.00012979,-0.00140352,-0.00110836,0.00012957,-0.
 00267129,-0.00421676,-0.00026399,0.11500873,0.12456215,-0.00001385,-0.
 00001237,0.01334969,0.00004240,0.00004186,-0.02187010,-0.00221856,-0.0
 0134231,-0.00046090,0.00253276,0.00200891,-0.00089187,-0.00030930,-0.0
 0066283,0.00018344,-0.00003344,-0.00003327,0.00968974\\0.00002689,0.00
 007864,-0.00003247,-0.00004937,-0.00003811,0.00004720,0.00003147,0.000
 00183,0.00002483,0.00001353,0.00000028,-0.00002109,-0.00000838,-0.0000
 0789,0.00000333,-0.00001414,-0.00003475,-0.00002181\\\@


 IF MATHEMATICALLY YOU END UP WITH THE INCORRECT ANSWER,
 TRY MULTIPLYING BY THE PAGE NUMBER.
 Job cpu time:       0 days  1 hours 18 minutes 19.3 seconds.
 Elapsed time:       0 days  1 hours 26 minutes 51.6 seconds.
 File lengths (MBytes):  RWF=    417 Int=      0 D2E=      0 Chk=      2 Scr=      1
 Normal termination of Gaussian 16 at Sun Aug 13 23:09:34 2023.
HOLD!  THE OLD BOY BEAMED UPON ME.
 Job cpu time:       0 days  1 hours 18 minutes  3.8 seconds.
 Elapsed time:       0 days  1 hours 23 minutes 40.8 seconds.
 File lengths (MBytes):  RWF=    417 Int=      0 D2E=      0 Chk=      2 Scr=      1
 Normal termination of Gaussian 16 at Sun Aug 13 23:09:04 2023.
l termination of Gaussian 16 at Sun Aug 13 21:46:28 2023.
