 Entering Gaussian System, Link 0=g16
 Input=input.gjf
 Output=input.log
 Initial command:
 /opt/ohpc/pub/apps/gaussian/G16x86_64_legacy_CPUs_linux_binary/g16/l1.exe "/tmp/Gau-22019.inp" -scrdir="/tmp/"
 Entering Link 1 = /opt/ohpc/pub/apps/gaussian/G16x86_64_legacy_CPUs_linux_binary/g16/l1.exe PID=     22114.
  
 Copyright (c) 1988,1990,1992,1993,1995,1998,2003,2009,2016,
            Gaussian, Inc.  All Rights Reserved.
  
 This is part of the Gaussian(R) 16 program.  It is based on
 the Gaussian(R) 09 system (copyright 2009, Gaussian, Inc.),
 the Gaussian(R) 03 system (copyright 2003, Gaussian, Inc.),
 the Gaussian(R) 98 system (copyright 1998, Gaussian, Inc.),
 the Gaussian(R) 94 system (copyright 1995, Gaussian, Inc.),
 the Gaussian 92(TM) system (copyright 1992, Gaussian, Inc.),
 the Gaussian 90(TM) system (copyright 1990, Gaussian, Inc.),
 the Gaussian 88(TM) system (copyright 1988, Gaussian, Inc.),
 the Gaussian 86(TM) system (copyright 1986, Carnegie Mellon
 University), and the Gaussian 82(TM) system (copyright 1983,
 Carnegie Mellon University). Gaussian is a federally registered
 trademark of Gaussian, Inc.
  
 This software contains proprietary and confidential information,
 including trade secrets, belonging to Gaussian, Inc.
  
 This software is provided under written license and may be
 used, copied, transmitted, or stored only in accord with that
 written license.
  
 The following legend is applicable only to US Government
 contracts under FAR:
  
                    RESTRICTED RIGHTS LEGEND
  
 Use, reproduction and disclosure by the US Government is
 subject to restrictions as set forth in subparagraphs (a)
 and (c) of the Commercial Computer Software - Restricted
 Rights clause in FAR 52.227-19.
  
 Gaussian, Inc.
 340 Quinnipiac St., Bldg. 40, Wallingford CT 06492
  
  
 ---------------------------------------------------------------
 Warning -- This program may not be used in any manner that
 competes with the business of Gaussian, Inc. or will provide
 assistance to any competitor of Gaussian, Inc.  The licensee
 of this program is prohibited from giving any competitor of
 Gaussian, Inc. access to this program.  By using this program,
 the user acknowledges that Gaussian, Inc. is engaged in the
 business of creating and licensing software in the field of
 computational chemistry and represents and warrants to the
 licensee that it is not a competitor of Gaussian, Inc. and that
 it will not use this program in any manner prohibited above.
 ---------------------------------------------------------------
  

 Cite this work as:
 Gaussian 16, Revision A.03,
 M. J. Frisch, G. W. Trucks, H. B. Schlegel, G. E. Scuseria, 
 M. A. Robb, J. R. Cheeseman, G. Scalmani, V. Barone, 
 G. A. Petersson, H. Nakatsuji, X. Li, M. Caricato, A. V. Marenich, 
 J. Bloino, B. G. Janesko, R. Gomperts, B. Mennucci, H. P. Hratchian, 
 J. V. Ortiz, A. F. Izmaylov, J. L. Sonnenberg, D. Williams-Young, 
 F. Ding, F. Lipparini, F. Egidi, J. Goings, B. Peng, A. Petrone, 
 T. Henderson, D. Ranasinghe, V. G. Zakrzewski, J. Gao, N. Rega, 
 G. Zheng, W. Liang, M. Hada, M. Ehara, K. Toyota, R. Fukuda, 
 J. Hasegawa, M. Ishida, T. Nakajima, Y. Honda, O. Kitao, H. Nakai, 
 T. Vreven, K. Throssell, J. A. Montgomery, Jr., J. E. Peralta, 
 F. Ogliaro, M. J. Bearpark, J. J. Heyd, E. N. Brothers, K. N. Kudin, 
 V. N. Staroverov, T. A. Keith, R. Kobayashi, J. Normand, 
 K. Raghavachari, A. P. Rendell, J. C. Burant, S. S. Iyengar, 
 J. Tomasi, M. Cossi, J. M. Millam, M. Klene, C. Adamo, R. Cammi, 
 J. W. Ochterski, R. L. Martin, K. Morokuma, O. Farkas, 
 J. B. Foresman, and D. J. Fox, Gaussian, Inc., Wallingford CT, 2016.
 
 ******************************************
 Gaussian 16:  EM64L-G16RevA.03 25-Dec-2016
                19-Jun-2023 
 ******************************************
 %NProcShared=24
 Will use up to   24 processors via shared memory.
 %Chk=ch3hgf_gas_apfd_def2svp.chk
 -------------------------------------------------
 #Opt Freq apfd/Def2SVP int=UltraFine scf=xqc test
 -------------------------------------------------
 1/18=20,19=15,26=4,38=1/1,3;
 2/9=110,12=2,17=6,18=5,40=1/2;
 3/5=43,7=101,11=2,25=1,30=1,71=1,74=-44,75=-5/1,2,3;
 4//1;
 5/5=2,8=3,13=1,38=5/2,8;
 6/7=2,8=2,9=2,10=2,28=1/1;
 7//1,2,3,16;
 1/18=20,19=15,26=4/3(2);
 2/9=110/2;
 99//99;
 2/9=110/2;
 3/5=43,7=101,11=2,25=1,30=1,71=1,74=-44,75=-5/1,2,3;
 4/5=5,16=3,69=1/1;
 5/5=2,8=3,13=1,38=5/2,8;
 7//1,2,3,16;
 1/18=20,19=15,26=4/3(-5);
 2/9=110/2;
 6/7=2,8=2,9=2,10=2,19=2,28=1/1;
 99/9=1/99;
 ------------------------------------------
 Optimization MeHgCl-apfd-def2svp-gas phase
 ------------------------------------------
 Symbolic Z-matrix:
 Charge =  0 Multiplicity = 1
 C                    -4.87226   1.58796   0.00002 
 Hg                   -3.37421   3.08412   0.00005 
 H                    -4.63754   0.85031   0.7709 
 H                    -4.89474   1.108    -0.98111 
 H                    -5.83831   2.05276   0.2102 
 F                    -1.69759   4.75882  -0.00006 
 

 GradGradGradGradGradGradGradGradGradGradGradGradGradGradGradGradGradGrad
 Berny optimization.
 Initialization pass.
                           ----------------------------
                           !    Initial Parameters    !
                           ! (Angstroms and Degrees)  !
 --------------------------                            --------------------------
 ! Name  Definition              Value          Derivative Info.                !
 --------------------------------------------------------------------------------
 ! R1    R(1,2)                  2.1172         estimate D2E/DX2                !
 ! R2    R(1,3)                  1.0925         estimate D2E/DX2                !
 ! R3    R(1,4)                  1.0925         estimate D2E/DX2                !
 ! R4    R(1,5)                  1.0925         estimate D2E/DX2                !
 ! R5    R(2,6)                  2.3697         estimate D2E/DX2                !
 ! A1    A(2,1,3)              108.9724         estimate D2E/DX2                !
 ! A2    A(2,1,4)              108.9678         estimate D2E/DX2                !
 ! A3    A(2,1,5)              108.9665         estimate D2E/DX2                !
 ! A4    A(3,1,4)              109.9682         estimate D2E/DX2                !
 ! A5    A(3,1,5)              109.9692         estimate D2E/DX2                !
 ! A6    A(4,1,5)              109.9691         estimate D2E/DX2                !
 ! A7    L(1,2,6,5,-1)         179.9977         estimate D2E/DX2                !
 ! A8    L(1,2,6,5,-2)         180.0102         estimate D2E/DX2                !
 ! D1    D(2,1,4,3)            119.3833         estimate D2E/DX2                !
 ! D2    D(2,1,5,3)           -119.383          estimate D2E/DX2                !
 ! D3    D(2,1,5,4)            119.3773         estimate D2E/DX2                !
 ! D4    D(3,1,5,4)           -121.2396         estimate D2E/DX2                !
 --------------------------------------------------------------------------------
 Trust Radius=3.00D-01 FncErr=1.00D-07 GrdErr=1.00D-06 EigMax=2.50D+02 EigMin=1.00D-04
 Number of steps in this run=     27 maximum allowed number of steps=    100.
 GradGradGradGradGradGradGradGradGradGradGradGradGradGradGradGradGradGrad

                          Input orientation:                          
 ---------------------------------------------------------------------
 Center     Atomic      Atomic             Coordinates (Angstroms)
 Number     Number       Type             X           Y           Z
 ---------------------------------------------------------------------
      1          6           0       -4.872260    1.587957    0.000017
      2         80           0       -3.374214    3.084122    0.000049
      3          1           0       -4.637535    0.850314    0.770897
      4          1           0       -4.894741    1.107998   -0.981111
      5          1           0       -5.838309    2.052761    0.210203
      6          9           0       -1.697590    4.758818   -0.000055
 ---------------------------------------------------------------------
                    Distance matrix (angstroms):
                    1          2          3          4          5
     1  C    0.000000
     2  Hg   2.117227   0.000000
     3  H    1.092460   2.679568   0.000000
     4  H    1.092464   2.679504   1.789438   0.000000
     5  H    1.092461   2.679484   1.789445   1.789449   0.000000
     6  F    4.486969   2.369741   4.951166   4.951033   4.951011
                    6
     6  F    0.000000
 This structure is nearly, but not quite of a higher symmetry.
 Consider Symm=Loose if the higher symmetry is desired.
 Stoichiometry    CH3FHg
 Framework group  C1[X(CH3FHg)]
 Deg. of freedom    12
 Full point group                 C1      NOp   1
 Largest Abelian subgroup         C1      NOp   1
 Largest concise Abelian subgroup C1      NOp   1
                         Standard orientation:                         
 ---------------------------------------------------------------------
 Center     Atomic      Atomic             Coordinates (Angstroms)
 Number     Number       Type             X           Y           Z
 ---------------------------------------------------------------------
      1          6           0        0.274855    0.691131   -1.995435
      2         80           0        0.001606    0.004004   -0.011539
      3          1           0        1.275212    1.120287   -2.088057
      4          1           0       -0.478833    1.450865   -2.215062
      5          1           0        0.165619   -0.152038   -2.681443
      6          9           0       -0.304405   -0.765132    2.208925
 ---------------------------------------------------------------------
 Rotational constants (GHZ):         156.6014583           2.8084315           2.8084312
 Standard basis: def2SVP (5D, 7F)
 There are    82 symmetry adapted cartesian basis functions of A   symmetry.
 There are    75 symmetry adapted basis functions of A   symmetry.
    75 basis functions,   136 primitive gaussians,    82 cartesian basis functions
    19 alpha electrons       19 beta electrons
       nuclear repulsion energy       100.8976350340 Hartrees.
 NAtoms=    6 NActive=    6 NUniq=    6 SFac= 1.00D+00 NAtFMM=   60 NAOKFM=F Big=F
 Integral buffers will be    131072 words long.
 Raffenetti 2 integral format.
 Two-electron integral symmetry is turned on.
 R6APFD:  NTU= -4 IXU= 1 FactS= 1.050
 Nuclear repulsion after empirical dispersion term =      100.8832837961 Hartrees.
 One-electron integrals computed using PRISM.
 PrsmSu:  requested number of processors reduced to:  13 ShMem   1 Linda.
   1 Symmetry operations used in ECPInt.
 ECPInt:  NShTT=     561 NPrTT=    1759 LenC2=     553 LenP2D=    1509.
 LDataN:  DoStor=T MaxTD1= 8 Len=  415
 NBasis=    75 RedAO= T EigKep=  9.29D-03  NBF=    75
 NBsUse=    75 1.00D-06 EigRej= -1.00D+00 NBFU=    75
 Defaulting to unpruned grid for atomic number  80.
 ExpMin= 5.64D-02 ExpMax= 2.89D+03 ExpMxC= 4.35D+02 IAcc=3 IRadAn=         5 AccDes= 0.00D+00
 Harris functional with IExCor= 3731 and IRadAn=       5 diagonalized for initial guess.
 HarFok:  IExCor= 3731 AccDes= 0.00D+00 IRadAn=         5 IDoV= 1 UseB2=F ITyADJ=14
 ICtDFT=  3500011 ScaDFX=  1.000000  1.000000  1.000000  1.000000
 Defaulting to unpruned grid for atomic number  80.
 FoFCou: FMM=F IPFlag=           0 FMFlag=      100000 FMFlg1=           0
         NFxFlg=           0 DoJE=T BraDBF=F KetDBF=T FulRan=T
         wScrn=  0.000000 ICntrl=       500 IOpCl=  0 I1Cent=   200000004 NGrid=           0
         NMat0=    1 NMatS0=      1 NMatT0=    0 NMatD0=    1 NMtDS0=    0 NMtDT0=    0
 Petite list used in FoFCou.
 Keep R1 ints in memory in canonical form, NReq=25774275.
 Requested convergence on RMS density matrix=1.00D-08 within  32 cycles.
 Requested convergence on MAX density matrix=1.00D-06.
 Requested convergence on             energy=1.00D-06.
 No special actions if energy rises.
 Integral accuracy reduced to 1.0D-05 until final iterations.
 Defaulting to unpruned grid for atomic number  80.
 Defaulting to unpruned grid for atomic number  80.
 Defaulting to unpruned grid for atomic number  80.
 Defaulting to unpruned grid for atomic number  80.
 Defaulting to unpruned grid for atomic number  80.
 Defaulting to unpruned grid for atomic number  80.
 Defaulting to unpruned grid for atomic number  80.
 Defaulting to unpruned grid for atomic number  80.
 Defaulting to unpruned grid for atomic number  80.
 Defaulting to unpruned grid for atomic number  80.
 Defaulting to unpruned grid for atomic number  80.
 Defaulting to unpruned grid for atomic number  80.
 Defaulting to unpruned grid for atomic number  80.
 Defaulting to unpruned grid for atomic number  80.
 Defaulting to unpruned grid for atomic number  80.
 Defaulting to unpruned grid for atomic number  80.
 Defaulting to unpruned grid for atomic number  80.
 Defaulting to unpruned grid for atomic number  80.
 Defaulting to unpruned grid for atomic number  80.
 Defaulting to unpruned grid for atomic number  80.
 Defaulting to unpruned grid for atomic number  80.
 Defaulting to unpruned grid for atomic number  80.
 Defaulting to unpruned grid for atomic number  80.
 Defaulting to unpruned grid for atomic number  80.
 Initial convergence to 1.0D-05 achieved.  Increase integral accuracy.
 SCF Done:  E(RAPFD) =  -293.029696327     A.U. after   15 cycles
            NFock= 15  Conv=0.20D-08     -V/T= 2.5478
 QCSCF skips out because SCF is already converged.

 **********************************************************************

            Population analysis using the SCF density.

 **********************************************************************

 Orbital symmetries:
       Occupied  (A) (A) (A) (A) (A) (A) (A) (A) (A) (A) (A) (A)
                 (A) (A) (A) (A) (A) (A) (A)
       Virtual   (A) (A) (A) (A) (A) (A) (A) (A) (A) (A) (A) (A)
                 (A) (A) (A) (A) (A) (A) (A) (A) (A) (A) (A) (A)
                 (A) (A) (A) (A) (A) (A) (A) (A) (A) (A) (A) (A)
                 (A) (A) (A) (A) (A) (A) (A) (A) (A) (A) (A) (A)
                 (A) (A) (A) (A) (A) (A) (A) (A)
 The electronic state is 1-A.
 Alpha  occ. eigenvalues --  -24.59425 -10.25856  -4.53391  -2.66621  -2.66198
 Alpha  occ. eigenvalues --   -2.66198  -0.99129  -0.73267  -0.51239  -0.50861
 Alpha  occ. eigenvalues --   -0.50861  -0.49223  -0.49223  -0.43301  -0.43301
 Alpha  occ. eigenvalues --   -0.36546  -0.29657  -0.27770  -0.27770
 Alpha virt. eigenvalues --   -0.07257  -0.00903  -0.00903   0.05581   0.12010
 Alpha virt. eigenvalues --    0.12010   0.16884   0.18968   0.40827   0.40828
 Alpha virt. eigenvalues --    0.45874   0.45874   0.48651   0.58137   0.58138
 Alpha virt. eigenvalues --    0.58706   0.65414   0.65414   0.68700   0.77280
 Alpha virt. eigenvalues --    0.80487   0.80487   1.03536   1.17941   1.17941
 Alpha virt. eigenvalues --    1.30990   1.33398   1.33398   1.42502   1.49257
 Alpha virt. eigenvalues --    1.53377   1.53377   1.53745   1.53752   1.53881
 Alpha virt. eigenvalues --    1.53881   1.67528   1.74573   1.74574   1.91857
 Alpha virt. eigenvalues --    1.95357   1.95358   2.16121   2.27715   2.39980
 Alpha virt. eigenvalues --    2.39980   2.70394   2.88292   2.88292   3.22138
 Alpha virt. eigenvalues --    3.22138   3.22158   3.22158   3.32251  33.23443
 Alpha virt. eigenvalues --  121.51426
          Condensed to atoms (all electrons):
               1          2          3          4          5          6
     1  C    5.009712   0.265437   0.374566   0.374562   0.374561  -0.001265
     2  Hg   0.265437  19.088651  -0.025168  -0.025172  -0.025173   0.165497
     3  H    0.374566  -0.025168   0.567834  -0.012953  -0.012952   0.000021
     4  H    0.374562  -0.025172  -0.012953   0.567839  -0.012952   0.000021
     5  H    0.374561  -0.025173  -0.012952  -0.012952   0.567840   0.000021
     6  F   -0.001265   0.165497   0.000021   0.000021   0.000021   9.320023
 Mulliken charges:
               1
     1  C   -0.397572
     2  Hg   0.555928
     3  H    0.108653
     4  H    0.108655
     5  H    0.108656
     6  F   -0.484320
 Sum of Mulliken charges =  -0.00000
 Mulliken charges with hydrogens summed into heavy atoms:
               1
     1  C   -0.071609
     2  Hg   0.555928
     6  F   -0.484320
 Electronic spatial extent (au):  <R**2>=            437.4612
 Charge=             -0.0000 electrons
 Dipole moment (field-independent basis, Debye):
    X=              0.7111    Y=              1.7875    Z=             -5.1605  Tot=              5.5074
 Quadrupole moment (field-independent basis, Debye-Ang):
   XX=            -34.0614   YY=            -35.0813   ZZ=            -43.9687
   XY=             -0.4821   XZ=              1.3918   YZ=              3.4982
 Traceless Quadrupole moment (field-independent basis, Debye-Ang):
   XX=              3.6424   YY=              2.6225   ZZ=             -6.2649
   XY=             -0.4821   XZ=              1.3918   YZ=              3.4982
 Octapole moment (field-independent basis, Debye-Ang**2):
  XXX=             -1.0981  YYY=             -3.2241  ZZZ=            -13.7450  XYY=             -0.4282
  XXY=             -0.4769  XXZ=              3.3697  XZZ=              2.9013  YZZ=              7.1507
  YYZ=              0.4198  XYZ=             -1.2026
 Hexadecapole moment (field-independent basis, Debye-Ang**3):
 XXXX=            -45.1686 YYYY=            -81.3907 ZZZZ=           -424.1165 XXXY=             -7.0231
 XXXZ=             22.2982 YYYX=             -9.2163 YYYZ=             60.0243 ZZZX=             30.1971
 ZZZY=             76.9519 XXYY=            -20.0644 XXZZ=            -71.2959 YYZZ=            -80.2832
 XXYZ=             18.0800 YYXZ=              9.1805 ZZXY=             -5.1230
 N-N= 1.008832837961D+02 E-N=-8.526853616759D+02  KE= 1.893147152933D+02
 R6APFD:  NTU= -4 IXU= 1 FactS= 1.050
 PrsmSu:  requested number of processors reduced to:  13 ShMem   1 Linda.
   1 Symmetry operations used in ECPInt.
 ECPInt:  NShTT=     561 NPrTT=    1759 LenC2=     553 LenP2D=    1509.
 LDataN:  DoStor=T MaxTD1= 9 Len=  602
 Calling FoFJK, ICntrl=      2127 FMM=F ISym2X=0 I1Cent= 0 IOpClX= 0 NMat=1 NMatS=1 NMatT=0.
 Defaulting to unpruned grid for atomic number  80.
 Defaulting to unpruned grid for atomic number  80.
 Defaulting to unpruned grid for atomic number  80.
 Defaulting to unpruned grid for atomic number  80.
 Defaulting to unpruned grid for atomic number  80.
 Defaulting to unpruned grid for atomic number  80.
 Defaulting to unpruned grid for atomic number  80.
 Defaulting to unpruned grid for atomic number  80.
 Defaulting to unpruned grid for atomic number  80.
 Defaulting to unpruned grid for atomic number  80.
 Defaulting to unpruned grid for atomic number  80.
 Defaulting to unpruned grid for atomic number  80.
 Defaulting to unpruned grid for atomic number  80.
 Defaulting to unpruned grid for atomic number  80.
 Defaulting to unpruned grid for atomic number  80.
 Defaulting to unpruned grid for atomic number  80.
 Defaulting to unpruned grid for atomic number  80.
 Defaulting to unpruned grid for atomic number  80.
 Defaulting to unpruned grid for atomic number  80.
 Defaulting to unpruned grid for atomic number  80.
 Defaulting to unpruned grid for atomic number  80.
 Defaulting to unpruned grid for atomic number  80.
 Defaulting to unpruned grid for atomic number  80.
 Defaulting to unpruned grid for atomic number  80.
 ***** Axes restored to original set *****
 -------------------------------------------------------------------
 Center     Atomic                   Forces (Hartrees/Bohr)
 Number     Number              X              Y              Z
 -------------------------------------------------------------------
      1        6           0.006975045    0.006970000   -0.000003347
      2       80           0.039758219    0.039696975   -0.000003438
      3        1           0.002977624   -0.000627240    0.002857313
      4        1           0.002022830    0.000326740   -0.003632535
      5        1          -0.001473603    0.003824739    0.000779001
      6        9          -0.050260115   -0.050191214    0.000003005
 -------------------------------------------------------------------
 Cartesian Forces:  Max     0.050260115 RMS     0.021539705

 GradGradGradGradGradGradGradGradGradGradGradGradGradGradGradGradGradGrad
 Berny optimization.
 FormGI is forming the generalized inverse of G from B-inverse, IUseBI=4.
 Internal  Forces:  Max     0.071029833 RMS     0.017681456
 Search for a local minimum.
 Step number   1 out of a maximum of   27
 All quantities printed in internal units (Hartrees-Bohrs-Radians)
 Mixed Optimization -- RFO/linear search
 Second derivative matrix not updated -- first step.
 The second derivative matrix:
                          R1        R2        R3        R4        R5
           R1           0.14592
           R2           0.00000   0.34530
           R3           0.00000   0.00000   0.34529
           R4           0.00000   0.00000   0.00000   0.34530
           R5           0.00000   0.00000   0.00000   0.00000   0.08255
           A1           0.00000   0.00000   0.00000   0.00000   0.00000
           A2           0.00000   0.00000   0.00000   0.00000   0.00000
           A3           0.00000   0.00000   0.00000   0.00000   0.00000
           A4           0.00000   0.00000   0.00000   0.00000   0.00000
           A5           0.00000   0.00000   0.00000   0.00000   0.00000
           A6           0.00000   0.00000   0.00000   0.00000   0.00000
           A7           0.00000   0.00000   0.00000   0.00000   0.00000
           A8           0.00000   0.00000   0.00000   0.00000   0.00000
           D1           0.00000   0.00000   0.00000   0.00000   0.00000
           D2           0.00000   0.00000   0.00000   0.00000   0.00000
           D3           0.00000   0.00000   0.00000   0.00000   0.00000
           D4           0.00000   0.00000   0.00000   0.00000   0.00000
                          A1        A2        A3        A4        A5
           A1           0.16000
           A2           0.00000   0.16000
           A3           0.00000   0.00000   0.16000
           A4           0.00000   0.00000   0.00000   0.16000
           A5           0.00000   0.00000   0.00000   0.00000   0.16000
           A6           0.00000   0.00000   0.00000   0.00000   0.00000
           A7           0.00000   0.00000   0.00000   0.00000   0.00000
           A8           0.00000   0.00000   0.00000   0.00000   0.00000
           D1           0.00000   0.00000   0.00000   0.00000   0.00000
           D2           0.00000   0.00000   0.00000   0.00000   0.00000
           D3           0.00000   0.00000   0.00000   0.00000   0.00000
           D4           0.00000   0.00000   0.00000   0.00000   0.00000
                          A6        A7        A8        D1        D2
           A6           0.16000
           A7           0.00000   0.00230
           A8           0.00000   0.00000   0.00230
           D1           0.00000   0.00000   0.00000   0.00230
           D2           0.00000   0.00000   0.00000   0.00000   0.00230
           D3           0.00000   0.00000   0.00000   0.00000   0.00000
           D4           0.00000   0.00000   0.00000   0.00000   0.00000
                          D3        D4
           D3           0.00230
           D4           0.00000   0.00230
 ITU=  0
     Eigenvalues ---    0.00230   0.00230   0.05051   0.05656   0.08255
     Eigenvalues ---    0.08734   0.14592   0.16000   0.16000   0.34529
     Eigenvalues ---    0.34530   0.34530
 RFO step:  Lambda=-4.19541840D-02 EMin= 2.30000000D-03
 Linear search not attempted -- first point.
 Maximum step size (   0.300) exceeded in Quadratic search.
    -- Step size scaled by   0.520
 Iteration  1 RMS(Cart)=  0.05397273 RMS(Int)=  0.02347124
 Iteration  2 RMS(Cart)=  0.02142768 RMS(Int)=  0.00002300
 Iteration  3 RMS(Cart)=  0.00000008 RMS(Int)=  0.00002300
 Variable       Old X    -DE/DX   Delta X   Delta X   Delta X     New X
                                 (Linear)    (Quad)   (Total)
    R1        4.00098  -0.01485   0.00000  -0.04111  -0.04111   3.95987
    R2        2.06445   0.00308   0.00000   0.00414   0.00414   2.06859
    R3        2.06446   0.00308   0.00000   0.00413   0.00413   2.06859
    R4        2.06445   0.00308   0.00000   0.00414   0.00414   2.06859
    R5        4.47816  -0.07103   0.00000  -0.29677  -0.29677   4.18139
    A1        1.90193  -0.00063   0.00000  -0.00475  -0.00473   1.89720
    A2        1.90185  -0.00099   0.00000  -0.00541  -0.00540   1.89645
    A3        1.90182  -0.00194   0.00000  -0.00639  -0.00638   1.89544
    A4        1.91931   0.00023   0.00000   0.00428   0.00422   1.92352
    A5        1.91932   0.00154   0.00000   0.00593   0.00589   1.92522
    A6        1.91932   0.00173   0.00000   0.00603   0.00599   1.92532
    A7        3.14155  -0.00003   0.00000  -0.00030  -0.00030   3.14126
    A8        3.14177   0.00000   0.00000   0.00002   0.00002   3.14179
    D1        2.08363  -0.00124   0.00000  -0.00654  -0.00655   2.07708
    D2       -2.08363   0.00103   0.00000   0.00614   0.00616  -2.07746
    D3        2.08353  -0.00136   0.00000  -0.00689  -0.00692   2.07661
    D4       -2.11603  -0.00239   0.00000  -0.01304  -0.01308  -2.12911
         Item               Value     Threshold  Converged?
 Maximum Force            0.071030     0.000450     NO 
 RMS     Force            0.017681     0.000300     NO 
 Maximum Displacement     0.198232     0.001800     NO 
 RMS     Displacement     0.075070     0.001200     NO 
 Predicted change in Energy=-1.804214D-02
 GradGradGradGradGradGradGradGradGradGradGradGradGradGradGradGradGradGrad

                          Input orientation:                          
 ---------------------------------------------------------------------
 Center     Atomic      Atomic             Coordinates (Angstroms)
 Number     Number       Type             X           Y           Z
 ---------------------------------------------------------------------
      1          6           0       -4.850364    1.609801    0.000117
      2         80           0       -3.367630    3.090514    0.000021
      3          1           0       -4.610657    0.873112    0.773477
      4          1           0       -4.868305    1.132096   -0.984636
      5          1           0       -5.815203    2.081846    0.211113
      6          9           0       -1.802490    4.654600   -0.000092
 ---------------------------------------------------------------------
                    Distance matrix (angstroms):
                    1          2          3          4          5
     1  C    0.000000
     2  Hg   2.095474   0.000000
     3  H    1.094649   2.657108   0.000000
     4  H    1.094652   2.656498   1.795666   0.000000
     5  H    1.094651   2.655671   1.796725   1.796790   0.000000
     6  F    4.308171   2.212697   4.773244   4.772482   4.771325
                    6
     6  F    0.000000
 Stoichiometry    CH3FHg
 Framework group  C1[X(CH3FHg)]
 Deg. of freedom    12
 Full point group                 C1      NOp   1
 Largest Abelian subgroup         C1      NOp   1
 Largest concise Abelian subgroup C1      NOp   1
                         Standard orientation:                         
 ---------------------------------------------------------------------
 Center     Atomic      Atomic             Coordinates (Angstroms)
 Number     Number       Type             X           Y           Z
 ---------------------------------------------------------------------
      1          6           0        2.095521   -0.000344   -0.000064
      2         80           0        0.000047    0.000065    0.000021
      3          1           0        2.446639    0.495040    0.910742
      4          1           0        2.445800    0.541555   -0.884322
      5          1           0        2.444479   -1.037534   -0.027040
      6          9           0       -2.212649   -0.000243   -0.000076
 ---------------------------------------------------------------------
 Rotational constants (GHZ):         155.3919792           3.0622617           3.0622127
 Standard basis: def2SVP (5D, 7F)
 There are    82 symmetry adapted cartesian basis functions of A   symmetry.
 There are    75 symmetry adapted basis functions of A   symmetry.
    75 basis functions,   136 primitive gaussians,    82 cartesian basis functions
    19 alpha electrons       19 beta electrons
       nuclear repulsion energy       104.5163352668 Hartrees.
 NAtoms=    6 NActive=    6 NUniq=    6 SFac= 1.00D+00 NAtFMM=   60 NAOKFM=F Big=F
 Integral buffers will be    131072 words long.
 Raffenetti 2 integral format.
 Two-electron integral symmetry is turned on.
 R6APFD:  NTU= -4 IXU= 1 FactS= 1.050
 Nuclear repulsion after empirical dispersion term =      104.5002960495 Hartrees.
 One-electron integrals computed using PRISM.
 PrsmSu:  requested number of processors reduced to:  13 ShMem   1 Linda.
   1 Symmetry operations used in ECPInt.
 ECPInt:  NShTT=     561 NPrTT=    1759 LenC2=     554 LenP2D=    1522.
 LDataN:  DoStor=T MaxTD1= 8 Len=  415
 NBasis=    75 RedAO= T EigKep=  8.84D-03  NBF=    75
 NBsUse=    75 1.00D-06 EigRej= -1.00D+00 NBFU=    75
 Defaulting to unpruned grid for atomic number  80.
 Initial guess from the checkpoint file:  "ch3hgf_gas_apfd_def2svp.chk"
 B after Tr=    -0.000000   -0.000000   -0.000000
         Rot=    0.731627    0.171111    0.656335    0.068320 Ang=  85.95 deg.
 ExpMin= 5.64D-02 ExpMax= 2.89D+03 ExpMxC= 4.35D+02 IAcc=2 IRadAn=         4 AccDes= 0.00D+00
 Harris functional with IExCor= 3731 and IRadAn=       4 diagonalized for initial guess.
 HarFok:  IExCor= 3731 AccDes= 0.00D+00 IRadAn=         4 IDoV= 1 UseB2=F ITyADJ=14
 ICtDFT=  3500011 ScaDFX=  1.000000  1.000000  1.000000  1.000000
 Defaulting to unpruned grid for atomic number  80.
 FoFCou: FMM=F IPFlag=           0 FMFlag=      100000 FMFlg1=           0
         NFxFlg=           0 DoJE=T BraDBF=F KetDBF=T FulRan=T
         wScrn=  0.000000 ICntrl=       500 IOpCl=  0 I1Cent=   200000004 NGrid=           0
         NMat0=    1 NMatS0=      1 NMatT0=    0 NMatD0=    1 NMtDS0=    0 NMtDT0=    0
 Petite list used in FoFCou.
 Keep R1 ints in memory in canonical form, NReq=25774275.
 Requested convergence on RMS density matrix=1.00D-08 within  32 cycles.
 Requested convergence on MAX density matrix=1.00D-06.
 Requested convergence on             energy=1.00D-06.
 No special actions if energy rises.
 Integral accuracy reduced to 1.0D-05 until final iterations.
 Defaulting to unpruned grid for atomic number  80.
 Defaulting to unpruned grid for atomic number  80.
 Defaulting to unpruned grid for atomic number  80.
 Defaulting to unpruned grid for atomic number  80.
 Defaulting to unpruned grid for atomic number  80.
 Defaulting to unpruned grid for atomic number  80.
 Defaulting to unpruned grid for atomic number  80.
 Defaulting to unpruned grid for atomic number  80.
 Defaulting to unpruned grid for atomic number  80.
 Defaulting to unpruned grid for atomic number  80.
 Defaulting to unpruned grid for atomic number  80.
 Defaulting to unpruned grid for atomic number  80.
 Defaulting to unpruned grid for atomic number  80.
 Defaulting to unpruned grid for atomic number  80.
 Defaulting to unpruned grid for atomic number  80.
 Defaulting to unpruned grid for atomic number  80.
 Defaulting to unpruned grid for atomic number  80.
 Defaulting to unpruned grid for atomic number  80.
 Defaulting to unpruned grid for atomic number  80.
 Defaulting to unpruned grid for atomic number  80.
 Defaulting to unpruned grid for atomic number  80.
 Defaulting to unpruned grid for atomic number  80.
 Defaulting to unpruned grid for atomic number  80.
 Defaulting to unpruned grid for atomic number  80.
 Initial convergence to 1.0D-05 achieved.  Increase integral accuracy.
 SCF Done:  E(RAPFD) =  -293.050774977     A.U. after   13 cycles
            NFock= 13  Conv=0.36D-08     -V/T= 2.5478
 QCSCF skips out because SCF is already converged.
 R6APFD:  NTU= -4 IXU= 1 FactS= 1.050
 PrsmSu:  requested number of processors reduced to:  13 ShMem   1 Linda.
   1 Symmetry operations used in ECPInt.
 ECPInt:  NShTT=     561 NPrTT=    1759 LenC2=     554 LenP2D=    1522.
 LDataN:  DoStor=T MaxTD1= 9 Len=  602
 Calling FoFJK, ICntrl=      2127 FMM=F ISym2X=0 I1Cent= 0 IOpClX= 0 NMat=1 NMatS=1 NMatT=0.
 Defaulting to unpruned grid for atomic number  80.
 Defaulting to unpruned grid for atomic number  80.
 Defaulting to unpruned grid for atomic number  80.
 Defaulting to unpruned grid for atomic number  80.
 Defaulting to unpruned grid for atomic number  80.
 Defaulting to unpruned grid for atomic number  80.
 Defaulting to unpruned grid for atomic number  80.
 Defaulting to unpruned grid for atomic number  80.
 Defaulting to unpruned grid for atomic number  80.
 Defaulting to unpruned grid for atomic number  80.
 Defaulting to unpruned grid for atomic number  80.
 Defaulting to unpruned grid for atomic number  80.
 Defaulting to unpruned grid for atomic number  80.
 Defaulting to unpruned grid for atomic number  80.
 Defaulting to unpruned grid for atomic number  80.
 Defaulting to unpruned grid for atomic number  80.
 Defaulting to unpruned grid for atomic number  80.
 Defaulting to unpruned grid for atomic number  80.
 Defaulting to unpruned grid for atomic number  80.
 Defaulting to unpruned grid for atomic number  80.
 Defaulting to unpruned grid for atomic number  80.
 Defaulting to unpruned grid for atomic number  80.
 Defaulting to unpruned grid for atomic number  80.
 Defaulting to unpruned grid for atomic number  80.
 ***** Axes restored to original set *****
 -------------------------------------------------------------------
 Center     Atomic                   Forces (Hartrees/Bohr)
 Number     Number              X              Y              Z
 -------------------------------------------------------------------
      1        6           0.005878225    0.005787661   -0.000031341
      2       80           0.038754686    0.038681377    0.000008456
      3        1           0.001262726   -0.000390713    0.001438225
      4        1           0.000757548    0.000064181   -0.001775937
      5        1          -0.000886710    0.001593921    0.000358579
      6        9          -0.045766475   -0.045736426    0.000002016
 -------------------------------------------------------------------
 Cartesian Forces:  Max     0.045766475 RMS     0.020088167

 GradGradGradGradGradGradGradGradGradGradGradGradGradGradGradGradGradGrad
 Berny optimization.
 Using GEDIIS/GDIIS optimizer.
 FormGI is forming the generalized inverse of G from B-inverse, IUseBI=4.
 Internal  Forces:  Max     0.064702325 RMS     0.015895962
 Search for a local minimum.
 Step number   2 out of a maximum of   27
 All quantities printed in internal units (Hartrees-Bohrs-Radians)
 Mixed Optimization -- RFO/linear search
 Update second derivatives using D2CorX and points    1    2
 DE= -2.11D-02 DEPred=-1.80D-02 R= 1.17D+00
 TightC=F SS=  1.41D+00  RLast= 3.00D-01 DXNew= 5.0454D-01 9.0147D-01
 Trust test= 1.17D+00 RLast= 3.00D-01 DXMaxT set to 5.05D-01
 The second derivative matrix:
                          R1        R2        R3        R4        R5
           R1           0.15230
           R2          -0.00233   0.34611
           R3          -0.00232   0.00080   0.34610
           R4          -0.00237   0.00082   0.00082   0.34613
           R5          -0.00505   0.00016   0.00016   0.00010   0.02177
           A1           0.00016  -0.00009  -0.00009  -0.00010  -0.00147
           A2           0.00065  -0.00025  -0.00025  -0.00026  -0.00107
           A3           0.00210  -0.00071  -0.00071  -0.00072   0.00045
           A4           0.00045  -0.00010  -0.00010  -0.00010   0.00207
           A5          -0.00152   0.00053   0.00052   0.00054   0.00013
           A6          -0.00184   0.00063   0.00063   0.00064  -0.00025
           A7           0.00006  -0.00002  -0.00002  -0.00002   0.00008
           A8           0.00000  -0.00000  -0.00000  -0.00000   0.00000
           D1           0.00168  -0.00052  -0.00052  -0.00053   0.00214
           D2          -0.00133   0.00041   0.00041   0.00042  -0.00169
           D3           0.00183  -0.00057  -0.00057  -0.00058   0.00233
           D4           0.00317  -0.00099  -0.00098  -0.00100   0.00402
                          A1        A2        A3        A4        A5
           A1           0.15998
           A2           0.00001   0.16006
           A3           0.00010   0.00023   0.16062
           A4           0.00006   0.00007   0.00007   0.15994
           A5          -0.00006  -0.00016  -0.00047  -0.00007   0.16034
           A6          -0.00008  -0.00020  -0.00055  -0.00006   0.00041
           A7           0.00000   0.00001   0.00002  -0.00000  -0.00001
           A8           0.00000   0.00000   0.00000  -0.00000  -0.00000
           D1           0.00011   0.00020   0.00044  -0.00001  -0.00034
           D2          -0.00009  -0.00016  -0.00035   0.00001   0.00027
           D3           0.00012   0.00022   0.00048  -0.00001  -0.00037
           D4           0.00022   0.00038   0.00083  -0.00002  -0.00065
                          A6        A7        A8        D1        D2
           A6           0.16049
           A7          -0.00001   0.00230
           A8          -0.00000   0.00000   0.00230
           D1          -0.00039   0.00001   0.00000   0.00256
           D2           0.00031  -0.00001  -0.00000  -0.00020   0.00246
           D3          -0.00043   0.00001   0.00000   0.00028  -0.00022
           D4          -0.00074   0.00002   0.00000   0.00049  -0.00038
                          D3        D4
           D3           0.00261
           D4           0.00053   0.00321
 ITU=  1  0
 Use linear search instead of GDIIS.
 Linear search step of   0.512 exceeds DXMaxT=   0.505 but not scaled.
 Quartic linear search produced a step of  1.70506.
 Iteration  1 RMS(Cart)=  0.06181357 RMS(Int)=  0.07422207
 Iteration  2 RMS(Cart)=  0.04428507 RMS(Int)=  0.02571507
 Iteration  3 RMS(Cart)=  0.02347434 RMS(Int)=  0.00010586
 Iteration  4 RMS(Cart)=  0.00000005 RMS(Int)=  0.00010586
 Variable       Old X    -DE/DX   Delta X   Delta X   Delta X     New X
                                 (Linear)    (Quad)   (Total)
    R1        3.95987  -0.00995  -0.07009   0.00000  -0.07009   3.88978
    R2        2.06859   0.00156   0.00705   0.00000   0.00705   2.07564
    R3        2.06859   0.00156   0.00705   0.00000   0.00705   2.07564
    R4        2.06859   0.00154   0.00706   0.00000   0.00706   2.07565
    R5        4.18139  -0.06470  -0.50601   0.00000  -0.50601   3.67538
    A1        1.89720  -0.00030  -0.00807   0.00000  -0.00799   1.88921
    A2        1.89645  -0.00040  -0.00920   0.00000  -0.00914   1.88731
    A3        1.89544  -0.00066  -0.01089   0.00000  -0.01087   1.88457
    A4        1.92352   0.00019   0.00719   0.00000   0.00691   1.93043
    A5        1.92522   0.00054   0.01005   0.00000   0.00988   1.93510
    A6        1.92532   0.00058   0.01022   0.00000   0.01006   1.93538
    A7        3.14126   0.00000  -0.00051   0.00000  -0.00051   3.14075
    A8        3.14179   0.00000   0.00003   0.00000   0.00003   3.14181
    D1        2.07708  -0.00049  -0.01117   0.00000  -0.01123   2.06585
    D2       -2.07746   0.00044   0.01051   0.00000   0.01059  -2.06688
    D3        2.07661  -0.00054  -0.01179   0.00000  -0.01188   2.06473
    D4       -2.12911  -0.00099  -0.02230   0.00000  -0.02247  -2.15158
         Item               Value     Threshold  Converged?
 Maximum Force            0.064702     0.000450     NO 
 RMS     Force            0.015896     0.000300     NO 
 Maximum Displacement     0.337947     0.001800     NO 
 RMS     Displacement     0.128003     0.001200     NO 
 Predicted change in Energy=-3.039983D-02
 GradGradGradGradGradGradGradGradGradGradGradGradGradGradGradGradGradGrad

                          Input orientation:                          
 ---------------------------------------------------------------------
 Center     Atomic      Atomic             Coordinates (Angstroms)
 Number     Number       Type             X           Y           Z
 ---------------------------------------------------------------------
      1          6           0       -4.813055    1.647056    0.000287
      2         80           0       -3.356466    3.101461   -0.000024
      3          1           0       -4.564855    0.911995    0.777797
      4          1           0       -4.823219    1.173179   -0.990560
      5          1           0       -5.775729    2.131419    0.212655
      6          9           0       -1.981324    4.476860   -0.000154
 ---------------------------------------------------------------------
                    Distance matrix (angstroms):
                    1          2          3          4          5
     1  C    0.000000
     2  Hg   2.058383   0.000000
     3  H    1.098381   2.618964   0.000000
     4  H    1.098381   2.617403   1.806116   0.000000
     5  H    1.098385   2.615157   1.809032   1.809206   0.000000
     6  F    4.003310   1.944927   4.470806   4.468958   4.465859
                    6
     6  F    0.000000
 Stoichiometry    CH3FHg
 Framework group  C1[X(CH3FHg)]
 Deg. of freedom    12
 Full point group                 C1      NOp   1
 Largest Abelian subgroup         C1      NOp   1
 Largest concise Abelian subgroup C1      NOp   1
                         Standard orientation:                         
 ---------------------------------------------------------------------
 Center     Atomic      Atomic             Coordinates (Angstroms)
 Number     Number       Type             X           Y           Z
 ---------------------------------------------------------------------
      1          6           0        2.037507   -0.000814   -0.000065
      2         80           0       -0.020876    0.000150    0.000030
      3          1           0        2.381643    0.498454    0.915763
      4          1           0        2.379596    0.544962   -0.889753
      5          1           0        2.376034   -1.045379   -0.027182
      6          9           0       -1.965803   -0.000573   -0.000094
 ---------------------------------------------------------------------
 Rotational constants (GHZ):         153.3831443           3.5674947           3.5673106
 Standard basis: def2SVP (5D, 7F)
 There are    82 symmetry adapted cartesian basis functions of A   symmetry.
 There are    75 symmetry adapted basis functions of A   symmetry.
    75 basis functions,   136 primitive gaussians,    82 cartesian basis functions
    19 alpha electrons       19 beta electrons
       nuclear repulsion energy       111.8416847107 Hartrees.
 NAtoms=    6 NActive=    6 NUniq=    6 SFac= 1.00D+00 NAtFMM=   60 NAOKFM=F Big=F
 Integral buffers will be    131072 words long.
 Raffenetti 2 integral format.
 Two-electron integral symmetry is turned on.
 R6APFD:  NTU= -4 IXU= 1 FactS= 1.050
 Nuclear repulsion after empirical dispersion term =      111.8228361792 Hartrees.
 One-electron integrals computed using PRISM.
 PrsmSu:  requested number of processors reduced to:  13 ShMem   1 Linda.
   1 Symmetry operations used in ECPInt.
 ECPInt:  NShTT=     561 NPrTT=    1759 LenC2=     560 LenP2D=    1549.
 LDataN:  DoStor=T MaxTD1= 8 Len=  415
 NBasis=    75 RedAO= T EigKep=  7.69D-03  NBF=    75
 NBsUse=    75 1.00D-06 EigRej= -1.00D+00 NBFU=    75
 Defaulting to unpruned grid for atomic number  80.
 Initial guess from the checkpoint file:  "ch3hgf_gas_apfd_def2svp.chk"
 B after Tr=    -0.000000    0.000000    0.000000
         Rot=    1.000000    0.000095   -0.000012    0.000026 Ang=   0.01 deg.
 ExpMin= 5.64D-02 ExpMax= 2.89D+03 ExpMxC= 4.35D+02 IAcc=2 IRadAn=         4 AccDes= 0.00D+00
 Harris functional with IExCor= 3731 and IRadAn=       4 diagonalized for initial guess.
 HarFok:  IExCor= 3731 AccDes= 0.00D+00 IRadAn=         4 IDoV= 1 UseB2=F ITyADJ=14
 ICtDFT=  3500011 ScaDFX=  1.000000  1.000000  1.000000  1.000000
 Defaulting to unpruned grid for atomic number  80.
 FoFCou: FMM=F IPFlag=           0 FMFlag=      100000 FMFlg1=           0
         NFxFlg=           0 DoJE=T BraDBF=F KetDBF=T FulRan=T
         wScrn=  0.000000 ICntrl=       500 IOpCl=  0 I1Cent=   200000004 NGrid=           0
         NMat0=    1 NMatS0=      1 NMatT0=    0 NMatD0=    1 NMtDS0=    0 NMtDT0=    0
 Petite list used in FoFCou.
 Keep R1 ints in memory in canonical form, NReq=25774275.
 Requested convergence on RMS density matrix=1.00D-08 within  32 cycles.
 Requested convergence on MAX density matrix=1.00D-06.
 Requested convergence on             energy=1.00D-06.
 No special actions if energy rises.
 Integral accuracy reduced to 1.0D-05 until final iterations.
 Defaulting to unpruned grid for atomic number  80.
 Defaulting to unpruned grid for atomic number  80.
 Defaulting to unpruned grid for atomic number  80.
 Defaulting to unpruned grid for atomic number  80.
 Defaulting to unpruned grid for atomic number  80.
 Defaulting to unpruned grid for atomic number  80.
 Defaulting to unpruned grid for atomic number  80.
 Defaulting to unpruned grid for atomic number  80.
 Defaulting to unpruned grid for atomic number  80.
 Defaulting to unpruned grid for atomic number  80.
 Defaulting to unpruned grid for atomic number  80.
 Defaulting to unpruned grid for atomic number  80.
 Defaulting to unpruned grid for atomic number  80.
 Defaulting to unpruned grid for atomic number  80.
 Defaulting to unpruned grid for atomic number  80.
 Defaulting to unpruned grid for atomic number  80.
 Defaulting to unpruned grid for atomic number  80.
 Defaulting to unpruned grid for atomic number  80.
 Defaulting to unpruned grid for atomic number  80.
 Defaulting to unpruned grid for atomic number  80.
 Defaulting to unpruned grid for atomic number  80.
 Defaulting to unpruned grid for atomic number  80.
 Defaulting to unpruned grid for atomic number  80.
 Defaulting to unpruned grid for atomic number  80.
 Initial convergence to 1.0D-05 achieved.  Increase integral accuracy.
 SCF Done:  E(RAPFD) =  -293.071000115     A.U. after   14 cycles
            NFock= 14  Conv=0.18D-08     -V/T= 2.5465
 QCSCF skips out because SCF is already converged.
 R6APFD:  NTU= -4 IXU= 1 FactS= 1.050
 PrsmSu:  requested number of processors reduced to:  13 ShMem   1 Linda.
   1 Symmetry operations used in ECPInt.
 ECPInt:  NShTT=     561 NPrTT=    1759 LenC2=     560 LenP2D=    1549.
 LDataN:  DoStor=T MaxTD1= 9 Len=  602
 Calling FoFJK, ICntrl=      2127 FMM=F ISym2X=0 I1Cent= 0 IOpClX= 0 NMat=1 NMatS=1 NMatT=0.
 Defaulting to unpruned grid for atomic number  80.
 Defaulting to unpruned grid for atomic number  80.
 Defaulting to unpruned grid for atomic number  80.
 Defaulting to unpruned grid for atomic number  80.
 Defaulting to unpruned grid for atomic number  80.
 Defaulting to unpruned grid for atomic number  80.
 Defaulting to unpruned grid for atomic number  80.
 Defaulting to unpruned grid for atomic number  80.
 Defaulting to unpruned grid for atomic number  80.
 Defaulting to unpruned grid for atomic number  80.
 Defaulting to unpruned grid for atomic number  80.
 Defaulting to unpruned grid for atomic number  80.
 Defaulting to unpruned grid for atomic number  80.
 Defaulting to unpruned grid for atomic number  80.
 Defaulting to unpruned grid for atomic number  80.
 Defaulting to unpruned grid for atomic number  80.
 Defaulting to unpruned grid for atomic number  80.
 Defaulting to unpruned grid for atomic number  80.
 Defaulting to unpruned grid for atomic number  80.
 Defaulting to unpruned grid for atomic number  80.
 Defaulting to unpruned grid for atomic number  80.
 Defaulting to unpruned grid for atomic number  80.
 Defaulting to unpruned grid for atomic number  80.
 Defaulting to unpruned grid for atomic number  80.
 ***** Axes restored to original set *****
 -------------------------------------------------------------------
 Center     Atomic                   Forces (Hartrees/Bohr)
 Number     Number              X              Y              Z
 -------------------------------------------------------------------
      1        6           0.002799255    0.002534431   -0.000080922
      2       80          -0.002324746   -0.002470635    0.000040230
      3        1          -0.001902990   -0.000350755   -0.000870881
      4        1          -0.001684474   -0.000718788    0.001248237
      5        1          -0.000319814   -0.002425565   -0.000327921
      6        9           0.003432768    0.003431312   -0.000008743
 -------------------------------------------------------------------
 Cartesian Forces:  Max     0.003432768 RMS     0.001897980

 GradGradGradGradGradGradGradGradGradGradGradGradGradGradGradGradGradGrad
 Berny optimization.
 Using GEDIIS/GDIIS optimizer.
 FormGI is forming the generalized inverse of G from B-inverse, IUseBI=4.
 Internal  Forces:  Max     0.004853638 RMS     0.001547300
 Search for a local minimum.
 Step number   3 out of a maximum of   27
 All quantities printed in internal units (Hartrees-Bohrs-Radians)
 Mixed Optimization -- RFO/linear search
 Update second derivatives using D2CorX and points    2    3
 The second derivative matrix:
                          R1        R2        R3        R4        R5
           R1           0.14475
           R2           0.00039   0.34518
           R3           0.00039  -0.00012   0.34518
           R4           0.00038  -0.00011  -0.00011   0.34519
           R5           0.00247   0.00008   0.00010   0.00004   0.13672
           A1          -0.00039   0.00010   0.00010   0.00010  -0.00123
           A2          -0.00033   0.00009   0.00009   0.00009  -0.00068
           A3          -0.00006   0.00004   0.00004   0.00003   0.00127
           A4           0.00047  -0.00011  -0.00011  -0.00011   0.00207
           A5           0.00014  -0.00005  -0.00005  -0.00005  -0.00048
           A6           0.00007  -0.00003  -0.00003  -0.00003  -0.00094
           A7           0.00000  -0.00000  -0.00000  -0.00000   0.00001
           A8           0.00000  -0.00000  -0.00000  -0.00000   0.00002
           D1           0.00043  -0.00009  -0.00009  -0.00009   0.00265
           D2          -0.00035   0.00007   0.00007   0.00007  -0.00218
           D3           0.00048  -0.00010  -0.00010  -0.00010   0.00298
           D4           0.00084  -0.00017  -0.00017  -0.00017   0.00515
                          A1        A2        A3        A4        A5
           A1           0.15994
           A2          -0.00006   0.15994
           A3          -0.00006  -0.00004   0.16002
           A4           0.00006   0.00007   0.00007   0.15994
           A5           0.00006   0.00005  -0.00000  -0.00007   0.15999
           A6           0.00005   0.00004  -0.00002  -0.00007   0.00000
           A7           0.00000   0.00000   0.00000  -0.00000  -0.00000
           A8           0.00000   0.00000   0.00000  -0.00000  -0.00000
           D1           0.00003   0.00004   0.00009  -0.00001  -0.00007
           D2          -0.00002  -0.00003  -0.00007   0.00001   0.00006
           D3           0.00003   0.00005   0.00010  -0.00001  -0.00008
           D4           0.00005   0.00008   0.00018  -0.00002  -0.00014
                          A6        A7        A8        D1        D2
           A6           0.16001
           A7          -0.00000   0.00230
           A8          -0.00000   0.00000   0.00230
           D1          -0.00008   0.00000   0.00000   0.00235
           D2           0.00007  -0.00000  -0.00000  -0.00004   0.00234
           D3          -0.00009   0.00000   0.00000   0.00006  -0.00005
           D4          -0.00016   0.00000   0.00000   0.00011  -0.00009
                          D3        D4
           D3           0.00237
           D4           0.00012   0.00251
 ITU=  0  1  0
 Use linear search instead of GDIIS.
     Eigenvalues ---    0.00230   0.00230   0.04942   0.05617   0.08909
     Eigenvalues ---    0.13601   0.14543   0.16000   0.16044   0.34496
     Eigenvalues ---    0.34530   0.34530
 RFO step:  Lambda=-1.53652809D-04 EMin= 2.29999980D-03
 Quartic linear search produced a step of -0.03999.
 Iteration  1 RMS(Cart)=  0.01206878 RMS(Int)=  0.00016135
 Iteration  2 RMS(Cart)=  0.00009470 RMS(Int)=  0.00012074
 Iteration  3 RMS(Cart)=  0.00000001 RMS(Int)=  0.00012074
 Variable       Old X    -DE/DX   Delta X   Delta X   Delta X     New X
                                 (Linear)    (Quad)   (Total)
    R1        3.88978   0.00146   0.00280   0.00454   0.00734   3.89712
    R2        2.07564  -0.00081  -0.00028  -0.00197  -0.00225   2.07339
    R3        2.07564  -0.00080  -0.00028  -0.00194  -0.00222   2.07342
    R4        2.07565  -0.00085  -0.00028  -0.00209  -0.00237   2.07328
    R5        3.67538   0.00485   0.02024  -0.00452   0.01572   3.69110
    A1        1.88921   0.00033   0.00032   0.01066   0.01106   1.90027
    A2        1.88731   0.00070   0.00037   0.01210   0.01253   1.89984
    A3        1.88457   0.00173   0.00043   0.01414   0.01459   1.89916
    A4        1.93043   0.00017  -0.00028  -0.00896  -0.00956   1.92088
    A5        1.93510  -0.00128  -0.00040  -0.01288  -0.01346   1.92164
    A6        1.93538  -0.00150  -0.00040  -0.01316  -0.01374   1.92164
    A7        3.14075   0.00001   0.00002   0.00311   0.00313   3.14388
    A8        3.14181   0.00001  -0.00000   0.00469   0.00469   3.14650
    D1        2.06585   0.00092   0.00045   0.01509   0.01547   2.08132
    D2       -2.06688  -0.00071  -0.00042  -0.01415  -0.01448  -2.08136
    D3        2.06473   0.00103   0.00048   0.01574   0.01610   2.08083
    D4       -2.15158   0.00175   0.00090   0.02989   0.03059  -2.12099
         Item               Value     Threshold  Converged?
 Maximum Force            0.004854     0.000450     NO 
 RMS     Force            0.001547     0.000300     NO 
 Maximum Displacement     0.024581     0.001800     NO 
 RMS     Displacement     0.012098     0.001200     NO 
 Predicted change in Energy=-1.540954D-04
 GradGradGradGradGradGradGradGradGradGradGradGradGradGradGradGradGradGrad

                          Input orientation:                          
 ---------------------------------------------------------------------
 Center     Atomic      Atomic             Coordinates (Angstroms)
 Number     Number       Type             X           Y           Z
 ---------------------------------------------------------------------
      1          6           0       -4.810454    1.649764    0.000160
      2         80           0       -3.352274    3.108072    0.001766
      3          1           0       -4.573048    0.909513    0.774427
      4          1           0       -4.830473    1.169484   -0.986141
      5          1           0       -5.779769    2.118411    0.211098
      6          9           0       -1.968631    4.486727   -0.001310
 ---------------------------------------------------------------------
                    Distance matrix (angstroms):
                    1          2          3          4          5
     1  C    0.000000
     2  Hg   2.062269   0.000000
     3  H    1.097188   2.630771   0.000000
     4  H    1.097206   2.630429   1.798181   0.000000
     5  H    1.097131   2.629824   1.798596   1.798613   0.000000
     6  F    4.015510   1.953246   4.492351   4.490449   4.492082
                    6
     6  F    0.000000
 Stoichiometry    CH3FHg
 Framework group  C1[X(CH3FHg)]
 Deg. of freedom    12
 Full point group                 C1      NOp   1
 Largest Abelian subgroup         C1      NOp   1
 Largest concise Abelian subgroup C1      NOp   1
                         Standard orientation:                         
 ---------------------------------------------------------------------
 Center     Atomic      Atomic             Coordinates (Angstroms)
 Number     Number       Type             X           Y           Z
 ---------------------------------------------------------------------
      1          6           0        2.041404    0.001820   -0.001303
      2         80           0       -0.020863   -0.000461    0.000330
      3          1           0        2.396649    0.445959    0.936974
      4          1           0        2.394621    0.593472   -0.855145
      5          1           0        2.396297   -1.032795   -0.086860
      6          9           0       -1.974106    0.002146   -0.001509
 ---------------------------------------------------------------------
 Rotational constants (GHZ):         155.0219151           3.5416192           3.5415916
 Standard basis: def2SVP (5D, 7F)
 There are    82 symmetry adapted cartesian basis functions of A   symmetry.
 There are    75 symmetry adapted basis functions of A   symmetry.
    75 basis functions,   136 primitive gaussians,    82 cartesian basis functions
    19 alpha electrons       19 beta electrons
       nuclear repulsion energy       111.4903781256 Hartrees.
 NAtoms=    6 NActive=    6 NUniq=    6 SFac= 1.00D+00 NAtFMM=   60 NAOKFM=F Big=F
 Integral buffers will be    131072 words long.
 Raffenetti 2 integral format.
 Two-electron integral symmetry is turned on.
 R6APFD:  NTU= -4 IXU= 1 FactS= 1.050
 Nuclear repulsion after empirical dispersion term =      111.4716143492 Hartrees.
 One-electron integrals computed using PRISM.
 PrsmSu:  requested number of processors reduced to:  13 ShMem   1 Linda.
   1 Symmetry operations used in ECPInt.
 ECPInt:  NShTT=     561 NPrTT=    1759 LenC2=     560 LenP2D=    1546.
 LDataN:  DoStor=T MaxTD1= 8 Len=  415
 NBasis=    75 RedAO= T EigKep=  7.77D-03  NBF=    75
 NBsUse=    75 1.00D-06 EigRej= -1.00D+00 NBFU=    75
 Defaulting to unpruned grid for atomic number  80.
 Initial guess from the checkpoint file:  "ch3hgf_gas_apfd_def2svp.chk"
 B after Tr=     0.000000    0.000000    0.000000
         Rot=    0.999602   -0.028214    0.000004   -0.000069 Ang=  -3.23 deg.
 ExpMin= 5.64D-02 ExpMax= 2.89D+03 ExpMxC= 4.35D+02 IAcc=2 IRadAn=         4 AccDes= 0.00D+00
 Harris functional with IExCor= 3731 and IRadAn=       4 diagonalized for initial guess.
 HarFok:  IExCor= 3731 AccDes= 0.00D+00 IRadAn=         4 IDoV= 1 UseB2=F ITyADJ=14
 ICtDFT=  3500011 ScaDFX=  1.000000  1.000000  1.000000  1.000000
 Defaulting to unpruned grid for atomic number  80.
 FoFCou: FMM=F IPFlag=           0 FMFlag=      100000 FMFlg1=           0
         NFxFlg=           0 DoJE=T BraDBF=F KetDBF=T FulRan=T
         wScrn=  0.000000 ICntrl=       500 IOpCl=  0 I1Cent=   200000004 NGrid=           0
         NMat0=    1 NMatS0=      1 NMatT0=    0 NMatD0=    1 NMtDS0=    0 NMtDT0=    0
 Petite list used in FoFCou.
 Keep R1 ints in memory in canonical form, NReq=25774275.
 Requested convergence on RMS density matrix=1.00D-08 within  32 cycles.
 Requested convergence on MAX density matrix=1.00D-06.
 Requested convergence on             energy=1.00D-06.
 No special actions if energy rises.
 Integral accuracy reduced to 1.0D-05 until final iterations.
 Defaulting to unpruned grid for atomic number  80.
 Defaulting to unpruned grid for atomic number  80.
 Defaulting to unpruned grid for atomic number  80.
 Defaulting to unpruned grid for atomic number  80.
 Defaulting to unpruned grid for atomic number  80.
 Defaulting to unpruned grid for atomic number  80.
 Defaulting to unpruned grid for atomic number  80.
 Defaulting to unpruned grid for atomic number  80.
 Defaulting to unpruned grid for atomic number  80.
 Defaulting to unpruned grid for atomic number  80.
 Defaulting to unpruned grid for atomic number  80.
 Defaulting to unpruned grid for atomic number  80.
 Defaulting to unpruned grid for atomic number  80.
 Defaulting to unpruned grid for atomic number  80.
 Defaulting to unpruned grid for atomic number  80.
 Defaulting to unpruned grid for atomic number  80.
 Defaulting to unpruned grid for atomic number  80.
 Defaulting to unpruned grid for atomic number  80.
 Defaulting to unpruned grid for atomic number  80.
 Defaulting to unpruned grid for atomic number  80.
 Defaulting to unpruned grid for atomic number  80.
 Defaulting to unpruned grid for atomic number  80.
 Defaulting to unpruned grid for atomic number  80.
 Defaulting to unpruned grid for atomic number  80.
 Initial convergence to 1.0D-05 achieved.  Increase integral accuracy.
 SCF Done:  E(RAPFD) =  -293.071155469     A.U. after   11 cycles
            NFock= 11  Conv=0.17D-08     -V/T= 2.5466
 QCSCF skips out because SCF is already converged.
 R6APFD:  NTU= -4 IXU= 1 FactS= 1.050
 PrsmSu:  requested number of processors reduced to:  13 ShMem   1 Linda.
   1 Symmetry operations used in ECPInt.
 ECPInt:  NShTT=     561 NPrTT=    1759 LenC2=     560 LenP2D=    1546.
 LDataN:  DoStor=T MaxTD1= 9 Len=  602
 Calling FoFJK, ICntrl=      2127 FMM=F ISym2X=0 I1Cent= 0 IOpClX= 0 NMat=1 NMatS=1 NMatT=0.
 Defaulting to unpruned grid for atomic number  80.
 Defaulting to unpruned grid for atomic number  80.
 Defaulting to unpruned grid for atomic number  80.
 Defaulting to unpruned grid for atomic number  80.
 Defaulting to unpruned grid for atomic number  80.
 Defaulting to unpruned grid for atomic number  80.
 Defaulting to unpruned grid for atomic number  80.
 Defaulting to unpruned grid for atomic number  80.
 Defaulting to unpruned grid for atomic number  80.
 Defaulting to unpruned grid for atomic number  80.
 Defaulting to unpruned grid for atomic number  80.
 Defaulting to unpruned grid for atomic number  80.
 Defaulting to unpruned grid for atomic number  80.
 Defaulting to unpruned grid for atomic number  80.
 Defaulting to unpruned grid for atomic number  80.
 Defaulting to unpruned grid for atomic number  80.
 Defaulting to unpruned grid for atomic number  80.
 Defaulting to unpruned grid for atomic number  80.
 Defaulting to unpruned grid for atomic number  80.
 Defaulting to unpruned grid for atomic number  80.
 Defaulting to unpruned grid for atomic number  80.
 Defaulting to unpruned grid for atomic number  80.
 Defaulting to unpruned grid for atomic number  80.
 Defaulting to unpruned grid for atomic number  80.
 ***** Axes restored to original set *****
 -------------------------------------------------------------------
 Center     Atomic                   Forces (Hartrees/Bohr)
 Number     Number              X              Y              Z
 -------------------------------------------------------------------
      1        6           0.002112929    0.002165630    0.000075649
      2       80          -0.000778063   -0.001030528   -0.000170365
      3        1          -0.000494883   -0.000458246    0.000032254
      4        1          -0.000489115   -0.000436851   -0.000018198
      5        1          -0.000559040   -0.000545555    0.000002123
      6        9           0.000208172    0.000305551    0.000078537
 -------------------------------------------------------------------
 Cartesian Forces:  Max     0.002165630 RMS     0.000833197

 GradGradGradGradGradGradGradGradGradGradGradGradGradGradGradGradGradGrad
 Berny optimization.
 Using GEDIIS/GDIIS optimizer.
 FormGI is forming the generalized inverse of G from B-inverse, IUseBI=4.
 Internal  Forces:  Max     0.000915603 RMS     0.000385248
 Search for a local minimum.
 Step number   4 out of a maximum of   27
 All quantities printed in internal units (Hartrees-Bohrs-Radians)
 Mixed Optimization -- En-DIIS/RFO-DIIS
 Update second derivatives using D2CorX and points    2    3    4
 DE= -1.55D-04 DEPred=-1.54D-04 R= 1.01D+00
 TightC=F SS=  1.41D+00  RLast= 5.43D-02 DXNew= 8.4853D-01 1.6283D-01
 Trust test= 1.01D+00 RLast= 5.43D-02 DXMaxT set to 5.05D-01
 The second derivative matrix:
                          R1        R2        R3        R4        R5
           R1           0.16527
           R2          -0.00723   0.34749
           R3          -0.00706   0.00213   0.34737
           R4          -0.00789   0.00243   0.00236   0.34798
           R5           0.03799  -0.01263  -0.01233  -0.01379   0.20023
           A1          -0.00674   0.00544   0.00537   0.00570  -0.01424
           A2          -0.00446   0.00479   0.00474   0.00498  -0.01002
           A3           0.00103   0.00293   0.00291   0.00295   0.00080
           A4           0.00963  -0.00635  -0.00625  -0.00669   0.01979
           A5           0.00130  -0.00367  -0.00364  -0.00376   0.00377
           A6          -0.00065  -0.00289  -0.00287  -0.00292   0.00004
           A7           0.00353  -0.00157  -0.00154  -0.00169   0.00622
           A8           0.00110  -0.00048  -0.00047  -0.00051   0.00194
           D1           0.00721  -0.00300  -0.00294  -0.00323   0.01457
           D2          -0.00509   0.00209   0.00204   0.00224  -0.01049
           D3           0.00806  -0.00335  -0.00329  -0.00361   0.01629
           D4           0.01314  -0.00544  -0.00533  -0.00585   0.02678
                          A1        A2        A3        A4        A5
           A1           0.14506
           A2          -0.01667   0.14178
           A3          -0.01901  -0.02002   0.13951
           A4           0.01319   0.01518   0.01821   0.14890
           A5           0.01770   0.01893   0.01996  -0.01663   0.14081
           A6           0.01791   0.01890   0.01943  -0.01711  -0.01888
           A7           0.00035   0.00082   0.00178   0.00022  -0.00134
           A8           0.00004   0.00018   0.00048   0.00013  -0.00034
           D1           0.00012   0.00101   0.00288   0.00094  -0.00204
           D2           0.00003  -0.00058  -0.00189  -0.00077   0.00131
           D3           0.00015   0.00114   0.00324   0.00103  -0.00230
           D4           0.00012   0.00173   0.00513   0.00180  -0.00361
                          A6        A7        A8        D1        D2
           A6           0.14159
           A7          -0.00163   0.00279
           A8          -0.00043   0.00016   0.00235
           D1          -0.00262   0.00098   0.00032   0.00431
           D2           0.00172  -0.00070  -0.00022  -0.00143   0.00331
           D3          -0.00295   0.00109   0.00035   0.00225  -0.00159
           D4          -0.00467   0.00179   0.00057   0.00367  -0.00261
                          D3        D4
           D3           0.00481
           D4           0.00410   0.00900
 ITU=  1  0  1  0
 Use linear search instead of GDIIS.
     Eigenvalues ---    0.00229   0.00232   0.03278   0.05354   0.08732
     Eigenvalues ---    0.14092   0.14808   0.15999   0.22320   0.34529
     Eigenvalues ---    0.34530   0.35736
 RFO step:  Lambda=-9.41870004D-05 EMin= 2.29155246D-03
 Quartic linear search produced a step of  0.23172.
 Iteration  1 RMS(Cart)=  0.07530957 RMS(Int)=  0.00604178
 Iteration  2 RMS(Cart)=  0.00674890 RMS(Int)=  0.00011887
 Iteration  3 RMS(Cart)=  0.00002131 RMS(Int)=  0.00011794
 Iteration  4 RMS(Cart)=  0.00000000 RMS(Int)=  0.00011794
 Variable       Old X    -DE/DX   Delta X   Delta X   Delta X     New X
                                 (Linear)    (Quad)   (Total)
    R1        3.89712  -0.00092   0.00170  -0.00705  -0.00535   3.89177
    R2        2.07339   0.00022  -0.00052   0.00038  -0.00014   2.07324
    R3        2.07342   0.00022  -0.00051   0.00036  -0.00016   2.07326
    R4        2.07328   0.00026  -0.00055   0.00048  -0.00006   2.07321
    R5        3.69110   0.00036   0.00364   0.00061   0.00425   3.69535
    A1        1.90027   0.00012   0.00256   0.00716   0.00981   1.91009
    A2        1.89984   0.00018   0.00290   0.00729   0.01026   1.91010
    A3        1.89916   0.00057   0.00338   0.00935   0.01274   1.91190
    A4        1.92088   0.00001  -0.00221  -0.00654  -0.00906   1.91181
    A5        1.92164  -0.00042  -0.00312  -0.00833  -0.01163   1.91000
    A6        1.92164  -0.00045  -0.00318  -0.00838  -0.01174   1.90990
    A7        3.14388  -0.00031   0.00072  -0.16060  -0.15987   2.98400
    A8        3.14650  -0.00009   0.00109  -0.04690  -0.04581   3.10069
    D1        2.08132   0.00026   0.00358   0.00929   0.01279   2.09412
    D2       -2.08136  -0.00025  -0.00336  -0.00949  -0.01275  -2.09411
    D3        2.08083   0.00031   0.00373   0.00961   0.01323   2.09406
    D4       -2.12099   0.00056   0.00709   0.01910   0.02598  -2.09501
         Item               Value     Threshold  Converged?
 Maximum Force            0.000916     0.000450     NO 
 RMS     Force            0.000385     0.000300     NO 
 Maximum Displacement     0.154692     0.001800     NO 
 RMS     Displacement     0.075802     0.001200     NO 
 Predicted change in Energy=-5.393627D-05
 GradGradGradGradGradGradGradGradGradGradGradGradGradGradGradGradGradGrad

                          Input orientation:                          
 ---------------------------------------------------------------------
 Center     Atomic      Atomic             Coordinates (Angstroms)
 Number     Number       Type             X           Y           Z
 ---------------------------------------------------------------------
      1          6           0       -4.799840    1.651507   -0.002236
      2         80           0       -3.270415    3.030176   -0.039725
      3          1           0       -4.600015    0.905585    0.777076
      4          1           0       -4.866983    1.154005   -0.977766
      5          1           0       -5.747444    2.160381    0.213900
      6          9           0       -2.029952    4.540316    0.028751
 ---------------------------------------------------------------------
                    Distance matrix (angstroms):
                    1          2          3          4          5
     1  C    0.000000
     2  Hg   2.059436   0.000000
     3  H    1.097113   2.636074   0.000000
     4  H    1.097121   2.636090   1.792332   0.000000
     5  H    1.097097   2.637526   1.791165   1.791110   0.000000
     6  F    4.002306   1.955494   4.514031   4.530885   4.417931
                    6
     6  F    0.000000
 Stoichiometry    CH3FHg
 Framework group  C1[X(CH3FHg)]
 Deg. of freedom    12
 Full point group                 C1      NOp   1
 Largest Abelian subgroup         C1      NOp   1
 Largest concise Abelian subgroup C1      NOp   1
                         Standard orientation:                         
 ---------------------------------------------------------------------
 Center     Atomic      Atomic             Coordinates (Angstroms)
 Number     Number       Type             X           Y           Z
 ---------------------------------------------------------------------
      1          6           0        2.033121   -0.119580   -0.000082
      2         80           0       -0.020878    0.029975    0.000024
      3          1           0        2.425524    0.240932    0.958932
      4          1           0        2.443445    0.488110   -0.816184
      5          1           0        2.324791   -1.167479   -0.143115
      6          9           0       -1.969143   -0.138011   -0.000121
 ---------------------------------------------------------------------
 Rotational constants (GHZ):         126.8339459           3.5600372           3.5414005
 Standard basis: def2SVP (5D, 7F)
 There are    82 symmetry adapted cartesian basis functions of A   symmetry.
 There are    75 symmetry adapted basis functions of A   symmetry.
    75 basis functions,   136 primitive gaussians,    82 cartesian basis functions
    19 alpha electrons       19 beta electrons
       nuclear repulsion energy       111.4788224327 Hartrees.
 NAtoms=    6 NActive=    6 NUniq=    6 SFac= 1.00D+00 NAtFMM=   60 NAOKFM=F Big=F
 Integral buffers will be    131072 words long.
 Raffenetti 2 integral format.
 Two-electron integral symmetry is turned on.
 R6APFD:  NTU= -4 IXU= 1 FactS= 1.050
 Nuclear repulsion after empirical dispersion term =      111.4601247680 Hartrees.
 One-electron integrals computed using PRISM.
 PrsmSu:  requested number of processors reduced to:  13 ShMem   1 Linda.
   1 Symmetry operations used in ECPInt.
 ECPInt:  NShTT=     561 NPrTT=    1759 LenC2=     560 LenP2D=    1549.
 LDataN:  DoStor=T MaxTD1= 8 Len=  415
 NBasis=    75 RedAO= T EigKep=  7.91D-03  NBF=    75
 NBsUse=    75 1.00D-06 EigRej= -1.00D+00 NBFU=    75
 Defaulting to unpruned grid for atomic number  80.
 Initial guess from the checkpoint file:  "ch3hgf_gas_apfd_def2svp.chk"
 B after Tr=     0.000000   -0.000000   -0.000000
         Rot=    0.999616   -0.027678    0.000066    0.001459 Ang=  -3.18 deg.
 ExpMin= 5.64D-02 ExpMax= 2.89D+03 ExpMxC= 4.35D+02 IAcc=2 IRadAn=         4 AccDes= 0.00D+00
 Harris functional with IExCor= 3731 and IRadAn=       4 diagonalized for initial guess.
 HarFok:  IExCor= 3731 AccDes= 0.00D+00 IRadAn=         4 IDoV= 1 UseB2=F ITyADJ=14
 ICtDFT=  3500011 ScaDFX=  1.000000  1.000000  1.000000  1.000000
 Defaulting to unpruned grid for atomic number  80.
 FoFCou: FMM=F IPFlag=           0 FMFlag=      100000 FMFlg1=           0
         NFxFlg=           0 DoJE=T BraDBF=F KetDBF=T FulRan=T
         wScrn=  0.000000 ICntrl=       500 IOpCl=  0 I1Cent=   200000004 NGrid=           0
         NMat0=    1 NMatS0=      1 NMatT0=    0 NMatD0=    1 NMtDS0=    0 NMtDT0=    0
 Petite list used in FoFCou.
 Keep R1 ints in memory in canonical form, NReq=25774275.
 Requested convergence on RMS density matrix=1.00D-08 within  32 cycles.
 Requested convergence on MAX density matrix=1.00D-06.
 Requested convergence on             energy=1.00D-06.
 No special actions if energy rises.
 Integral accuracy reduced to 1.0D-05 until final iterations.
 Defaulting to unpruned grid for atomic number  80.
 Defaulting to unpruned grid for atomic number  80.
 Defaulting to unpruned grid for atomic number  80.
 Defaulting to unpruned grid for atomic number  80.
 Defaulting to unpruned grid for atomic number  80.
 Defaulting to unpruned grid for atomic number  80.
 Defaulting to unpruned grid for atomic number  80.
 Defaulting to unpruned grid for atomic number  80.
 Defaulting to unpruned grid for atomic number  80.
 Defaulting to unpruned grid for atomic number  80.
 Defaulting to unpruned grid for atomic number  80.
 Defaulting to unpruned grid for atomic number  80.
 Defaulting to unpruned grid for atomic number  80.
 Defaulting to unpruned grid for atomic number  80.
 Defaulting to unpruned grid for atomic number  80.
 Defaulting to unpruned grid for atomic number  80.
 Defaulting to unpruned grid for atomic number  80.
 Defaulting to unpruned grid for atomic number  80.
 Defaulting to unpruned grid for atomic number  80.
 Defaulting to unpruned grid for atomic number  80.
 Defaulting to unpruned grid for atomic number  80.
 Defaulting to unpruned grid for atomic number  80.
 Defaulting to unpruned grid for atomic number  80.
 Defaulting to unpruned grid for atomic number  80.
 Initial convergence to 1.0D-05 achieved.  Increase integral accuracy.
 SCF Done:  E(RAPFD) =  -293.069588743     A.U. after   13 cycles
            NFock= 13  Conv=0.16D-08     -V/T= 2.5465
 QCSCF skips out because SCF is already converged.
 R6APFD:  NTU= -4 IXU= 1 FactS= 1.050
 PrsmSu:  requested number of processors reduced to:  13 ShMem   1 Linda.
   1 Symmetry operations used in ECPInt.
 ECPInt:  NShTT=     561 NPrTT=    1759 LenC2=     560 LenP2D=    1549.
 LDataN:  DoStor=T MaxTD1= 9 Len=  602
 Calling FoFJK, ICntrl=      2127 FMM=F ISym2X=0 I1Cent= 0 IOpClX= 0 NMat=1 NMatS=1 NMatT=0.
 Defaulting to unpruned grid for atomic number  80.
 Defaulting to unpruned grid for atomic number  80.
 Defaulting to unpruned grid for atomic number  80.
 Defaulting to unpruned grid for atomic number  80.
 Defaulting to unpruned grid for atomic number  80.
 Defaulting to unpruned grid for atomic number  80.
 Defaulting to unpruned grid for atomic number  80.
 Defaulting to unpruned grid for atomic number  80.
 Defaulting to unpruned grid for atomic number  80.
 Defaulting to unpruned grid for atomic number  80.
 Defaulting to unpruned grid for atomic number  80.
 Defaulting to unpruned grid for atomic number  80.
 Defaulting to unpruned grid for atomic number  80.
 Defaulting to unpruned grid for atomic number  80.
 Defaulting to unpruned grid for atomic number  80.
 Defaulting to unpruned grid for atomic number  80.
 Defaulting to unpruned grid for atomic number  80.
 Defaulting to unpruned grid for atomic number  80.
 Defaulting to unpruned grid for atomic number  80.
 Defaulting to unpruned grid for atomic number  80.
 Defaulting to unpruned grid for atomic number  80.
 Defaulting to unpruned grid for atomic number  80.
 Defaulting to unpruned grid for atomic number  80.
 Defaulting to unpruned grid for atomic number  80.
 ***** Axes restored to original set *****
 -------------------------------------------------------------------
 Center     Atomic                   Forces (Hartrees/Bohr)
 Number     Number              X              Y              Z
 -------------------------------------------------------------------
      1        6           0.003783210   -0.005580618   -0.002369202
      2       80          -0.007981106    0.007769456    0.003954097
      3        1          -0.000031199   -0.000627474    0.000152792
      4        1          -0.000445542   -0.000792044   -0.000165735
      5        1           0.000712502    0.002320291    0.000201409
      6        9           0.003962135   -0.003089611   -0.001773361
 -------------------------------------------------------------------
 Cartesian Forces:  Max     0.007981106 RMS     0.003546194

 GradGradGradGradGradGradGradGradGradGradGradGradGradGradGradGradGradGrad
 Berny optimization.
 Using GEDIIS/GDIIS optimizer.
 FormGI is forming the generalized inverse of G from B-inverse, IUseBI=4.
 Internal  Forces:  Max     0.019590390 RMS     0.004882200
 Search for a local minimum.
 Step number   5 out of a maximum of   27
 All quantities printed in internal units (Hartrees-Bohrs-Radians)
 Mixed Optimization -- RFO/linear search
 Update second derivatives using D2CorX and points    2    3    5    4
 DE=  1.57D-03 DEPred=-5.39D-05 R=-2.90D+01
 Trust test=-2.90D+01 RLast= 1.72D-01 DXMaxT set to 2.52D-01
 The second derivative matrix:
                          R1        R2        R3        R4        R5
           R1           0.15768
           R2          -0.00550   0.34726
           R3          -0.00539   0.00191   0.34716
           R4          -0.00591   0.00213   0.00208   0.34761
           R5           0.03722  -0.01285  -0.01253  -0.01408   0.17917
           A1          -0.00288   0.00519   0.00514   0.00536  -0.00564
           A2          -0.00040   0.00455   0.00451   0.00463  -0.00186
           A3           0.00654   0.00102   0.00105   0.00090   0.00361
           A4           0.00624  -0.00637  -0.00629  -0.00666   0.00979
           A5          -0.00375  -0.00243  -0.00243  -0.00239  -0.00099
           A6          -0.00621  -0.00148  -0.00150  -0.00133  -0.00312
           A7           0.00723   0.00079   0.00088   0.00030   0.00499
           A8           0.00073  -0.00021  -0.00021  -0.00025   0.00201
           D1           0.00913  -0.00379  -0.00370  -0.00414   0.00796
           D2          -0.00597   0.00277   0.00271   0.00298  -0.00605
           D3           0.00979  -0.00435  -0.00425  -0.00472   0.00902
           D4           0.01575  -0.00712  -0.00697  -0.00770   0.01508
                          A1        A2        A3        A4        A5
           A1           0.14146
           A2          -0.02024   0.13844
           A3          -0.02422  -0.02596   0.13882
           A4           0.01657   0.01857   0.02358   0.14582
           A5           0.02219   0.02370   0.02305  -0.02111   0.13692
           A6           0.02232   0.02346   0.02300  -0.02155  -0.02295
           A7           0.00440   0.00930  -0.02049  -0.00464   0.00715
           A8           0.00048   0.00088  -0.00033  -0.00031  -0.00023
[...]
 Vib (V=0)    3  0.105838D+01          0.024642          0.056740
 Electronic      0.100000D+01          0.000000          0.000000
 Translational   0.142495D+09          8.153801         18.774821
 Rotational      0.196350D+05          4.293032          9.885071
 ***** Axes restored to original set *****
 -------------------------------------------------------------------
 Center     Atomic                   Forces (Hartrees/Bohr)
 Number     Number              X              Y              Z
 -------------------------------------------------------------------
      1        6           0.000071297    0.000036297    0.000022265
      2       80           0.000125173    0.000182609   -0.000034962
      3        1          -0.000073895   -0.000009162   -0.000051445
      4        1          -0.000047746   -0.000019635    0.000061116
      5        1           0.000020363   -0.000071669   -0.000013086
      6        9          -0.000095192   -0.000118441    0.000016112
 -------------------------------------------------------------------
 Cartesian Forces:  Max     0.000182609 RMS     0.000074832
 FormGI is forming the generalized inverse of G from B-inverse, IUseBI=4.

 GradGradGradGradGradGradGradGradGradGradGradGradGradGradGradGradGradGrad
 Berny optimization.
 Internal  Forces:  Max     0.000151060 RMS     0.000053078
 Search for a local minimum.
 Step number   1 out of a maximum of    2
 All quantities printed in internal units (Hartrees-Bohrs-Radians)
 Second derivative matrix not updated -- analytic derivatives used.
 The second derivative matrix:
                          R1        R2        R3        R4        R5
           R1           0.20662
           R2           0.00173   0.35284
           R3           0.00173  -0.00011   0.35284
           R4           0.00173  -0.00011  -0.00011   0.35283
           R5          -0.00256   0.00072   0.00072   0.00072   0.26324
           A1           0.00259  -0.00060  -0.00043  -0.00144   0.00074
           A2           0.00406   0.00000  -0.00022  -0.00364   0.00115
           A3           0.00794  -0.00325  -0.00322  -0.00109   0.00226
           A4          -0.00099   0.00343   0.00341  -0.00590  -0.00028
           A5          -0.00634   0.00629  -0.00568   0.00541  -0.00180
           A6          -0.00713  -0.00592   0.00610   0.00660  -0.00203
           A7           0.00002   0.00013   0.00013  -0.00027   0.00003
           A8          -0.00002  -0.00009   0.00009   0.00002  -0.00002
           D1           0.00505   0.00135   0.00141  -0.00756   0.00144
           D2          -0.00418  -0.00110   0.00594  -0.00086  -0.00119
           D3           0.00549  -0.00557   0.00146  -0.00111   0.00156
           D4           0.00968  -0.00447  -0.00448  -0.00026   0.00275
                          A1        A2        A3        A4        A5
           A1           0.01636
           A2          -0.00742   0.03075
           A3          -0.01060  -0.01807   0.05998
           A4          -0.00758  -0.00137   0.02203   0.03515
           A5          -0.01176   0.02152  -0.03017  -0.02129   0.06692
           A6           0.02098  -0.02537  -0.02290  -0.02682  -0.02540
           A7           0.00576   0.00860  -0.01932  -0.00408   0.00527
           A8          -0.00328   0.00435  -0.00056   0.00035   0.00198
           D1           0.01088   0.00890  -0.01065   0.01119  -0.01412
           D2          -0.00640   0.00708  -0.00543   0.00870  -0.00773
           D3          -0.00284   0.01118   0.00070  -0.00446  -0.00753
           D4           0.00356   0.00410   0.00613  -0.01316   0.00021
                          A6        A7        A8        D1        D2
           A6           0.07926
           A7           0.00373   0.12621
           A8          -0.00284  -0.00006   0.01958
           D1          -0.00610   0.00982  -0.00114   0.02552
           D2           0.00375   0.00158   0.00315   0.00177   0.01584
           D3           0.00302   0.00096   0.00325   0.00067   0.00760
           D4          -0.00073  -0.00062   0.00010  -0.00111  -0.00823
                          D3        D4
           D3           0.01594
           D4           0.00833   0.01657
 ITU=  0
     Eigenvalues ---    0.01720   0.03241   0.03686   0.05367   0.10153
     Eigenvalues ---    0.11954   0.14244   0.20900   0.26345   0.35300
     Eigenvalues ---    0.35363   0.35371
 Angle be Iteration  1 RMS(Cart)=  0.00050306 RMS(Int)=  0.00000059
 Iteration  2 RMS(Cart)=  0.00000044 RMS(Int)=  0.00000030
 Variable       Old X    -DE/DX   D Iteration  2 RMS(Cart)=  0.00000044 RMS(Int)=  0.00000030
 Variable       Old X    -DE/DX   Delta X   Delta X   Delta X     New X
                                 (Linear)    (Quad)   (Total)
    R1        3.88998   0.00007   0.00000   0.00009   0.00009   3.89007
    R2        2.07461  -0.00005   0.00000  -0.00009  -0.00009   2.07452
    R3        2.07461  -0.00004   0.00000  -0.00009  -0.00009   2.07452
    R4        2.07462  -0.00005   0.00000  -0.00010  -0.00010   2.07452
    R5        3.69245  -0.00015   0.00000  -0.00062  -0.00062   3.69183
    A1        1.90640   0.00003   0.00000   0.00072   0.00072   1.90712
    A2        1.90641   0.00003   0.00000   0.00071   0.00071   1.90712
    A3        1.90660   0.00003   0.00000   0.00052   0.00052   1.90712
    A4        1.91477  -0.00001   0.00000  -0.00064  -0.00064   1.91413
    A5        1.91478  -0.00004   0.00000  -0.00064  -0.00064   1.91413
    A6        1.91478  -0.00003   0.00000  -0.00065  -0.00065   1.91414
    A7        3.14125   0.00005   0.00000   0.00033   0.00033   3.14158
    A8        3.14300  -0.00003   0.00000  -0.00140  -0.00140   3.14160
    D1        2.08915   0.00004   0.00000   0.00093   0.00093   2.09008
    D2       -2.08927  -0.00003   0.00000  -0.00081  -0.00081  -2.09008
    D3        2.08929   0.00003   0.00000   0.00079   0.00079   2.09008
    D4       -2.10463   0.00006   0.00000   0.00160   0.00160  -2.10303
         Item               Value     Threshold  Converged?
 Maximum Force            0.000151     0.000450     YES
 RMS     Force            0.000053     0.000300     YES
 Maximum Displacement     0.000993     0.001800     YES
 RMS     Displacement     0.000503     0.001200     YES
 Predicted change in Energy=-2.209073D-07
 Optimization completed.
    -- Stationary point found.
                           ----------------------------
                           !   Optimized Parameters   !
                           ! (Angstroms and Degrees)  !
 --------------------------                            --------------------------
 ! Name  Definition              Value          Derivative Info.                !
 --------------------------------------------------------------------------------
 ! R1    R(1,2)                  2.0585         -DE/DX =    0.0001              !
 ! R2    R(1,3)                  1.0978         -DE/DX =    0.0                 !
 ! R3    R(1,4)                  1.0978         -DE/DX =    0.0                 !
 ! R4    R(1,5)                  1.0978         -DE/DX =   -0.0001              !
 ! R5    R(2,6)                  1.954          -DE/DX =   -0.0002              !
 ! A1    A(2,1,3)              109.2284         -DE/DX =    0.0                 !
 ! A2    A(2,1,4)              109.2293         -DE/DX =    0.0                 !
 ! A3    A(2,1,5)              109.2402         -DE/DX =    0.0                 !
 ! A4    A(3,1,4)              109.7085         -DE/DX =    0.0                 !
 ! A5    A(3,1,5)              109.7087         -DE/DX =    0.0                 !
 ! A6    A(4,1,5)              109.7091         -DE/DX =    0.0                 !
 ! A7    L(1,2,6,5,-1)         179.9805         -DE/DX =    0.0                 !
 ! A8    L(1,2,6,5,-2)         180.0807         -DE/DX =    0.0                 !
 ! D1    D(2,1,4,3)            119.6994         -DE/DX =    0.0                 !
 ! D2    D(2,1,5,3)           -119.7062         -DE/DX =    0.0                 !
 ! D3    D(2,1,5,4)            119.7075         -DE/DX =    0.0                 !
 ! D4    D(3,1,5,4)           -120.5863         -DE/DX =    0.0001              !
 --------------------------------------------------------------
 ----------------------------------------------------------------------

 Electric dipole mom
 ----------------------------------------------------------------------

 Electric dipole moment (input orientation):
 (Debye = 10**-18 statcoulomb cm , SI units = C m)
                  (au)            (Debye)         (10**-30 SI)
   Tot        0.131815D+01      0.335040D+01      0.111757D+02
   x         -0.932390D+00     -0.236990D+01     -0.790513D+01
   y         -0.931755D+00     -0.236829D+01     -0.789975D+01
   z          0.388988D-03      0.988708D-03      0.329797D-02

 Dipole polarizability, Alpha (input orientation).
 (esu units = cm**3 , SI units = C**2 m**2 J**-1)
 Alpha(0;0):
               (au)            (10**-24 esu)      (10**-40 SI)
   iso        0.379918D+02      0.562980D+01      0.626400D+01
   aniso      0.224807D+02      0.333130D+01      0.370657D+01
   xx         0.417540D+02      0.618731D+01      0.688431D+01
   yx         0.112404D+02      0.166565D+01      0.185329D+01
   yy         0.417230D+02      0.618271D+01      0.687920D+01
   zx         0.537783D-03      0.796913D-04      0.886685D-04
   zy         0.429643D-03      0.636665D-04      0.708385D-04
   zz         0.304982D+02      0.451937D+01      0.502848D+01

 ----------------------------------------------------------------------

 Dipole orientation:
     6         -6.10179843          6.10423088          4.21743514
    80         -6.09919531          6.10420387          0.32745699
     1         -4.14667058          6.21770298          4.90198564
     1         -6.98162697          4.35385167          4.90013026
     1         -7.17829824          7.74094344          4.90035286
     9         -6.09912502          6.10409914         -3.36499467

 Electric dipole moment (dipole orientation):
 (Debye = 10**-18 statcoulomb cm , SI units = C m)
                  (au)            (Debye)         (10**-30 SI)
   Tot        0.131815D+01      0.335040D+01      0.111757D+02
   x          0.000000D+00      0.000000D+00      0.000000D+00
   y          0.000000D+00      0.000000D+00      0.000000D+00
   z          0.131815D+01      0.335040D+01      0.111757D+02

 Dipole polarizability, Alpha (dipole orientation).
 (esu units = cm**3 , SI units = C**2 m**2 J**-1)
 Alpha(0;0):
               (au)            (10**-24 esu)      (10**-40 SI)
   iso        0.379918D+02      0.562980D+01      0.626400D+01
   aniso      0.224807D+02      0.333130D+01      0.370657D+01
   xx         0.304983D+02      0.451938D+01      0.502848D+01
   yx         0.478423D-04      0.708949D-05      0.788813D-05
   yy         0.304981D+02      0.451935D+01      0.502846D+01
   zx        -0.107298D-01     -0.158999D-02     -0.176910D-02
   zy         0.384113D-03      0.569196D-04      0.633316D-04
   zz         0.529789D+02      0.785067D+01      0.873505D+01

 ----------------------------------------------------------------------

 Test job not archived.
 1\1\GINC-GRANADO-COMPUTE-16\Freq\RAPFD\def2SVP\C1H3F1Hg1\ROOT\19-Jun-2
 023\0\\#N Geom=AllCheck Guess=TCheck SCRF=Check Test GenChk RAPFD/def2
 SVP Freq\\Optimization MeHgCl-apfd-def2svp-gas phase\\0,1\C,-4.8071136
 314,1.6531137331,0.0000129725\Hg,-3.3503516456,3.1074927282,0.00036978
 82\H,-4.5762589233,0.9099535853,0.774393185\H,-4.8323638962,1.16688800
 47,-0.9839531025\H,-5.7803853244,2.1158870773,0.2093968528\F,-1.968175
 5791,4.4886348713,-0.0002196961\\Version=EM64L-G16RevA.03\State=1-A\HF
 =-293.0711749\RMSD=6.869e-10\RMSF=7.483e-05\ZeroPoint=0.0382402\Therma
 l=0.0427753\Dipole=-0.9323903,-0.9317553,0.000389\DipoleDeriv=-0.11955
 57,0.0696481,0.000045,0.0697924,-0.1197198,0.0000287,-0.0000185,-0.000
 033,-0.1893721,0.9291495,0.4871164,-0.000135,0.4871413,0.9282409,-0.00
 0127,-0.0001617,-0.0001535,0.4415618,0.0365416,-0.0635328,0.0204019,-0
 .0235469,-0.0453543,0.0766117,-0.0114042,0.0448327,0.0297747,0.0286311
 ,-0.0667217,-0.0447427,-0.0477581,-0.0099639,-0.0785063,-0.0042711,-0.
 0380943,0.0023011,-0.0855333,0.0068235,0.0243055,-0.0522264,0.0353007,
 0.0018716,0.0156687,-0.0067344,0.071232,-0.7892333,-0.4333335,0.000125
 3,-0.4334023,-0.7885035,0.0001213,0.0001868,0.0001826,-0.3554975\Polar
 =41.7540499,11.2403871,41.7230216,0.0005378,0.0004296,30.4982341\Quadr
 upole=-1.0404631,-1.0358485,2.0763116,-3.1145018,0.0013061,0.0013476\P
 G=C01 [X(C1H3F1Hg1)]\NImag=0\\0.45631495,-0.09054508,0.45657186,-0.000
 04083,-0.00003080,0.54698977,-0.11218796,-0.07297885,-0.00001959,0.265
 28283,-0.07300971,-0.11197206,-0.00002269,0.20993893,0.26480284,0.0000
 0455,0.00000094,-0.03908209,-0.00002548,-0.00002695,0.05510919,-0.0485
 1209,0.04248409,-0.03734782,0.00230748,-0.01151594,0.01190940,0.054146
 48,0.05123408,-0.17428850,0.14428561,0.00225119,-0.00913548,0.00813569
 ,-0.04765347,0.18098368,-0.04430477,0.13733356,-0.18843816,0.00096127,
 -0.00280060,0.00183169,0.04735999,-0.14819641,0.19771013,-0.03730416,0
 .00051909,-0.01322507,-0.00162477,-0.00696727,-0.01388195,-0.00132303,
 -0.00349253,-0.00556755,0.03982617,0.00466261,-0.09674878,-0.12245262,
 -0.00044906,-0.00703655,-0.01159853,0.00014501,0.01065901,0.01982893,0
 .00000765,0.09975718,-0.00438331,-0.11362198,-0.27719623,0.00003548,0.
 00229613,0.00366225,0.00062883,-0.01137369,-0.01562368,0.00515446,0.12
 275742,0.29326219,-0.27070132,0.12046409,0.05061973,-0.01047734,0.0041
 5112,0.00196154,-0.00368254,0.00004530,0.00219554,0.00254516,-0.002232
 76,-0.00195830,0.28275876,0.10757034,-0.08594915,-0.02179353,-0.016138
 57,0.00642468,0.00345723,0.01716905,-0.00755929,-0.00639880,0.01123478
 ,-0.00559072,-0.00005307,-0.11994866,0.09646466,0.04873478,-0.02367180
 ,-0.05458918,-0.00100207,0.00050406,-0.00093978,-0.02051004,0.00830988
 ,0.00495517,0.02521822,-0.01030623,-0.00324194,-0.05256047,0.02539496,
 0.05360440,0.01239057,0.00005666,0.00001357,-0.14330025,-0.12259712,0.
 00003193,-0.00293631,-0.00238457,-0.00064448,-0.00211938,-0.00213344,0
 .00052285,-0.00044273,0.00011306,0.00011959,0.13640809,0.00008776,0.01
 238663,0.00001403,-0.12262364,-0.14308342,0.00003162,-0.00062874,-0.00
 065942,0.00023332,-0.00130171,-0.00104013,-0.00000481,-0.00247908,-0.0
 0379018,-0.00023087,0.12694541,0.13618651,-0.00001042,-0.00000993,0.01
 231589,0.00005039,0.00005005,-0.02058127,-0.00204035,-0.00116108,-0.00
 043515,0.00230189,0.00177104,-0.00086259,-0.00025805,-0.00060678,0.000
 21132,-0.00004346,-0.00004329,0.00935179\\-0.00007130,-0.00003630,-0.0
 0002226,-0.00012517,-0.00018261,0.00003496,0.00007389,0.00000916,0.000
 05144,0.00004775,0.00001964,-0.00006112,-0.00002036,0.00007167,0.00001
 309,0.00009519,0.00011844,-0.00001611\\\@


 QED = W**5 (WHICH WAS WHAT WE WANTED)
 Job cpu time:       0 days  0 hours 20 minutes 11.3 seconds.
 Elapsed time:       0 days  0 hours 13 minutes  3.8 seconds.
 File lengths (MBytes):  RWF=      9 Int=      0 D2E=      0 Chk=      2 Scr=      1
 Normal termination of Gaussian 16 at Mon Jun 19 12:30:17 2023.
:29:55 2023.
t Mon Jun 19 12:29:54 2023.
                                                                  AAAAA
                                                                              AAAAAA   KKKKKKKK
                                                                             AAAAAAA   KKKKKKKK
                                                                            AAAAAAAA   KKKKKKKK
                                       ZZZZZZZZZZZZZZZZZZZZ                AAAA  AAA   KKKKKKKK
                                       ZZZZZZZZZZZZZZZZZZZ                AAAA   AAA   KKKKKKKK          K
                                       ZZZZZZZZZZZZZZZZZZ                AAAA    AAA   KKKKKKKK         KKK
                                       ZZZZZZZZZZZZZZZZZ                AAAA     AAA   KKKKKKKK        KKKKK
                                       ZZZZZZZZZZZZZZZZ                AAAA      AAA   KKKKKKKK       KKKKKKK
                                                ZZZZZZ                AAAA       AAA   KKKKKKKK      KKKKKKK
                                               ZZZZZZ                AAAA        AAA   KKKKKKKK     KKKKKKK
                                              ZZZZZZ                AAAA         AAA   KKKKKKKK    KKKKKKK
                                             ZZZZZZ                AAAA          AAA   KKKKKKKK   KKKKKKK
                                            ZZZZZZ                AAAAAAAAAAAAAAAAAA   KKKKKKKK  KKKKKKK
                                           ZZZZZZ                AAAAAAAAAAAAAAAAAAA   KKKKKKKK KKKKKKK
                                          ZZZZZZ                AAAAAAAAAAAAAAAAAAAA   KKKKKKKKKKKKKKK
                                         ZZZZZZ                AAAAAAAAAAAAAAAAAAAAA   KKKKKKKKKKKKKK
                                        ZZZZZZ                AAAAAA        AAAAAAAA   KKKKKKKKKKKKK
                                       ZZZZZZ                AAAAAA         AAAAAAAA   KKKKKKKKKKKK
                                      ZZZZZZ                AAAAAA          AAAAAAAA   KKKKKKKKKKK
                                     ZZZZZZ                AAAAAA           AAAAAAAA   KKKKKKKKKKKK
                                    ZZZZZZ                AAAAAA            AAAAAAAA   KKKKKKKKKKKKK
                                   ZZZZZZ                AAAAAA             AAAAAAAA   KKKKKKKKKKKKKK
                                  ZZZZZZ                AAAAAA              AAAAAAAA   KKKKKKKKKKKKKKK
                                 ZZZZZZ                AAAAAA               AAAAAAAA   KKKKK KKKKKKKKKK
                                ZZZZZZ                AAAAAA                AAAAAAAA   KKKKK  KKKKKKKKKK
                               ZZZZZZ                AAAAAA                            KKKKK   KKKKKKKKKK
                              ZZZZZZ                AAAAAA                             KKKKK    KKKKKKKKKK
                             ZZZZZZ                                                    KKKKK     KKKKKKKKKK
                            ZZZZZZ                                                     KKKKK      KKKKKKKKKK
                           ZZZZZZ                                                      KKKKK       KKKKKKKKKK
                          ZZZZZZ                                                       KKKKK        KKKKKKKKKK
                         ZZZZZZZZZZZZZZZZZZZZZZZZZZZZZZZZZZZZZZZZ                      KKKKK         KKKKKKKKKK
                        ZZZZZZZZZZZZZZZZZZZZZZZZZZZZZZZZZZZZZZZZZ                      KKKKK          KKKKKKKKKK
                       ZZZZZZZZZZZZZZZZZZZZZZZZZZZZZZZZZZZZZZZZZZ                      KKKKK           KKKKKKKKKK
                       ZZZZZZZZZZZZZZZZZZZZZZZZZZZZZZZZZZZZZZZZZZ                      KKKKK            KKKKKKKKKK
                       ZZZZZZZZZZZZZZZZZZZZZZZZZZZZZZZZZZZZZZZZZZ                      KKKKK             KKKKKKKKKK
                       ZZZZZZZZZZZZZZZZZZZZZZZZZZZZZZZZZZZZZZZZZZ                      KKKKK              KKKKKKKKKK
                       ZZZZZZZZZZZZZZZZZZZZZZZZZZZZZZZZZZZZZZZZZZ                      KKKKK               KKKKKKKKKK
                       ZZZZZZZZZZZZZZZZZZZZZZZZZZZZZZZZZZZZZZZZZZ                      KKKKK                KKKKKKKKKK
                       ZZZZZZZZZZZZZZZZZZZZZZZZZZZZZZZZZZZZZZZZZZ                      KKKKK
                                                                                       KKKKK
                                                                                          (J.P.)
 Job cpu time:       0 days  0 hours 20 minutes 24.1 seconds.
 Elapsed time:       0 days  0 hours 13 minutes 53.3 seconds.
 File lengths (MBytes):  RWF=      9 Int=      0 D2E=      0 Chk=      2 Scr=      1
 Normal termination of Gaussian 16 at Mon Jun 19 12:29:28 2023.
