 Entering Gaussian System, Link 0=g16
 Input=input.gjf
 Output=input.log
 Initial command:
 /opt/ohpc/pub/apps/gaussian/G16x86_64_legacy_CPUs_linux_binary/g16/l1.exe "/tmp/Gau-64908.inp" -scrdir="/tmp/"
 Entering Link 1 = /opt/ohpc/pub/apps/gaussian/G16x86_64_legacy_CPUs_linux_binary/g16/l1.exe PID=     64975.
  
 Copyright (c) 1988,1990,1992,1993,1995,1998,2003,2009,2016,
            Gaussian, Inc.  All Rights Reserved.
  
 This is part of the Gaussian(R) 16 program.  It is based on
 the Gaussian(R) 09 system (copyright 2009, Gaussian, Inc.),
 the Gaussian(R) 03 system (copyright 2003, Gaussian, Inc.),
 the Gaussian(R) 98 system (copyright 1998, Gaussian, Inc.),
 the Gaussian(R) 94 system (copyright 1995, Gaussian, Inc.),
 the Gaussian 92(TM) system (copyright 1992, Gaussian, Inc.),
 the Gaussian 90(TM) system (copyright 1990, Gaussian, Inc.),
 the Gaussian 88(TM) system (copyright 1988, Gaussian, Inc.),
 the Gaussian 86(TM) system (copyright 1986, Carnegie Mellon
 University), and the Gaussian 82(TM) system (copyright 1983,
 Carnegie Mellon University). Gaussian is a federally registered
 trademark of Gaussian, Inc.
  
 This software contains proprietary and confidential information,
 including trade secrets, belonging to Gaussian, Inc.
  
 This software is provided under written license and may be
 used, copied, transmitted, or stored only in accord with that
 written license.
  
 The following legend is applicable only to US Government
 contracts under FAR:
  
                    RESTRICTED RIGHTS LEGEND
  
 Use, reproduction and disclosure by the US Government is
 subject to restrictions as set forth in subparagraphs (a)
 and (c) of the Commercial Computer Software - Restricted
 Rights clause in FAR 52.227-19.
  
 Gaussian, Inc.
 340 Quinnipiac St., Bldg. 40, Wallingford CT 06492
  
  
 ---------------------------------------------------------------
 Warning -- This program may not be used in any manner that
 competes with the business of Gaussian, Inc. or will provide
 assistance to any competitor of Gaussian, Inc.  The licensee
 of this program is prohibited from giving any competitor of
 Gaussian, Inc. access to this program.  By using this program,
 the user acknowledges that Gaussian, Inc. is engaged in the
 business of creating and licensing software in the field of
 computational chemistry and represents and warrants to the
 licensee that it is not a competitor of Gaussian, Inc. and that
 it will not use this program in any manner prohibited above.
 ---------------------------------------------------------------
  

 Cite this work as:
 Gaussian 16, Revision A.03,
 M. J. Frisch, G. W. Trucks, H. B. Schlegel, G. E. Scuseria, 
 M. A. Robb, J. R. Cheeseman, G. Scalmani, V. Barone, 
 G. A. Petersson, H. Nakatsuji, X. Li, M. Caricato, A. V. Marenich, 
 J. Bloino, B. G. Janesko, R. Gomperts, B. Mennucci, H. P. Hratchian, 
 J. V. Ortiz, A. F. Izmaylov, J. L. Sonnenberg, D. Williams-Young, 
 F. Ding, F. Lipparini, F. Egidi, J. Goings, B. Peng, A. Petrone, 
 T. Henderson, D. Ranasinghe, V. G. Zakrzewski, J. Gao, N. Rega, 
 G. Zheng, W. Liang, M. Hada, M. Ehara, K. Toyota, R. Fukuda, 
 J. Hasegawa, M. Ishida, T. Nakajima, Y. Honda, O. Kitao, H. Nakai, 
 T. Vreven, K. Throssell, J. A. Montgomery, Jr., J. E. Peralta, 
 F. Ogliaro, M. J. Bearpark, J. J. Heyd, E. N. Brothers, K. N. Kudin, 
 V. N. Staroverov, T. A. Keith, R. Kobayashi, J. Normand, 
 K. Raghavachari, A. P. Rendell, J. C. Burant, S. S. Iyengar, 
 J. Tomasi, M. Cossi, J. M. Millam, M. Klene, C. Adamo, R. Cammi, 
 J. W. Ochterski, R. L. Martin, K. Morokuma, O. Farkas, 
 J. B. Foresman, and D. J. Fox, Gaussian, Inc., Wallingford CT, 2016.
 
 ******************************************
 Gaussian 16:  EM64L-G16RevA.03 25-Dec-2016
                 1-Oct-2022 
 ******************************************
 %NProcShared=24
 Will use up to   24 processors via shared memory.
 %Chk=ch3hg_gas_apfd.chk
 -------------------------
 #Opt Freq PBE1PBE/def2svp
 -------------------------
 1/18=20,19=15,26=3,38=1/1,3;
 2/9=110,12=2,17=6,18=5,40=1/2;
 3/5=43,7=101,11=2,25=1,30=1,71=1,74=-13/1,2,3;
 4//1;
 5/5=2,38=5/2;
 6/7=2,8=2,9=2,10=2,28=1/1;
 7//1,2,3,16;
 1/18=20,19=15,26=3/3(2);
 2/9=110/2;
 99//99;
 2/9=110/2;
 3/5=43,7=101,11=2,25=1,30=1,71=1,74=-13/1,2,3;
 4/5=5,16=3,69=1/1;
 5/5=2,38=5/2;
 7//1,2,3,16;
 1/18=20,19=15,26=3/3(-5);
 2/9=110/2;
 6/7=2,8=2,9=2,10=2,19=2,28=1/1;
 99/9=1/99;
 ----------------------------------------
 Optimization MeHg-adfd-def2svp-solvation
 ----------------------------------------
 Symbolic Z-matrix:
 Charge =  1 Multiplicity = 1
 C                    -4.90923   1.55094  -0.00079 
 Hg                   -3.34603   3.11247   0.001 
 H                    -4.66399   0.82398   0.77549 
 H                    -4.91664   1.07892  -0.98485 
 H                    -5.86789   2.02986   0.20616 
 

 GradGradGradGradGradGradGradGradGradGradGradGradGradGradGradGradGradGrad
 Berny optimization.
 Initialization pass.
                           ----------------------------
                           !    Initial Parameters    !
                           ! (Angstroms and Degrees)  !
 --------------------------                            --------------------------
 ! Name  Definition              Value          Derivative Info.                !
 --------------------------------------------------------------------------------
 ! R1    R(1,2)                  2.2095         estimate D2E/DX2                !
 ! R2    R(1,3)                  1.0914         estimate D2E/DX2                !
 ! R3    R(1,4)                  1.0914         estimate D2E/DX2                !
 ! R4    R(1,5)                  1.0914         estimate D2E/DX2                !
 ! A1    A(2,1,3)              108.1301         estimate D2E/DX2                !
 ! A2    A(2,1,4)              108.1301         estimate D2E/DX2                !
 ! A3    A(2,1,5)              108.1288         estimate D2E/DX2                !
 ! A4    A(3,1,4)              110.7783         estimate D2E/DX2                !
 ! A5    A(3,1,5)              110.779          estimate D2E/DX2                !
 ! A6    A(4,1,5)              110.7791         estimate D2E/DX2                !
 ! D1    D(2,1,4,3)            118.3234         estimate D2E/DX2                !
 ! D2    D(2,1,5,3)           -118.323          estimate D2E/DX2                !
 ! D3    D(2,1,5,4)            118.323          estimate D2E/DX2                !
 ! D4    D(3,1,5,4)           -123.354          estimate D2E/DX2                !
 --------------------------------------------------------------------------------
 Trust Radius=3.00D-01 FncErr=1.00D-07 GrdErr=1.00D-06 EigMax=2.50D+02 EigMin=1.00D-04
 Number of steps in this run=     24 maximum allowed number of steps=    100.
 GradGradGradGradGradGradGradGradGradGradGradGradGradGradGradGradGradGrad

                          Input orientation:                          
 ---------------------------------------------------------------------
 Center     Atomic      Atomic             Coordinates (Angstroms)
 Number     Number       Type             X           Y           Z
 ---------------------------------------------------------------------
      1          6           0       -4.909229    1.550937   -0.000794
      2         80           0       -3.346030    3.112469    0.001000
      3          1           0       -4.663989    0.823982    0.775486
      4          1           0       -4.916639    1.078924   -0.984851
      5          1           0       -5.867890    2.029856    0.206158
 ---------------------------------------------------------------------
                    Distance matrix (angstroms):
                    1          2          3          4          5
     1  C    0.000000
     2  Hg   2.209520   0.000000
     3  H    1.091429   2.752093   0.000000
     4  H    1.091430   2.752094   1.796556   0.000000
     5  H    1.091432   2.752075   1.796565   1.796567   0.000000
 This structure is nearly, but not quite of a higher symmetry.
 Consider Symm=Loose if the higher symmetry is desired.
 Stoichiometry    CH3Hg(1+)
 Framework group  C1[X(CH3Hg)]
 Deg. of freedom     9
 Full point group                 C1      NOp   1
 Largest Abelian subgroup         C1      NOp   1
 Largest concise Abelian subgroup C1      NOp   1
                         Standard orientation:                         
 ---------------------------------------------------------------------
 Center     Atomic      Atomic             Coordinates (Angstroms)
 Number     Number       Type             X           Y           Z
 ---------------------------------------------------------------------
      1          6           0       -0.188457    0.563998    1.882972
      2         80           0        0.022417   -0.067087   -0.223979
      3          1           0       -1.164127    1.039167    1.999157
      4          1           0        0.614426    1.268049    2.108607
      5          1           0       -0.112907   -0.324226    2.512714
 ---------------------------------------------------------------------
 Rotational constants (GHZ):         155.3629272           6.7872508           6.7872486
 Standard basis: def2SVP (5D, 7F)
 There are    67 symmetry adapted cartesian basis functions of A   symmetry.
 There are    61 symmetry adapted basis functions of A   symmetry.
    61 basis functions,   111 primitive gaussians,    67 cartesian basis functions
    14 alpha electrons       14 beta electrons
       nuclear repulsion energy        49.8876844411 Hartrees.
 NAtoms=    5 NActive=    5 NUniq=    5 SFac= 1.00D+00 NAtFMM=   60 NAOKFM=F Big=F
 Integral buffers will be    131072 words long.
 Raffenetti 2 integral format.
 Two-electron integral symmetry is turned on.
 One-electron integrals computed using PRISM.
 PrsmSu:  requested number of processors reduced to:  13 ShMem   1 Linda.
   1 Symmetry operations used in ECPInt.
 ECPInt:  NShTT=     378 NPrTT=    1116 LenC2=     379 LenP2D=    1058.
 LDataN:  DoStor=T MaxTD1= 8 Len=  415
 NBasis=    61 RedAO= T EigKep=  9.96D-03  NBF=    61
 NBsUse=    61 1.00D-06 EigRej= -1.00D+00 NBFU=    61
 Defaulting to unpruned grid for atomic number  80.
 ExpMin= 5.64D-02 ExpMax= 1.24D+03 ExpMxC= 1.86D+02 IAcc=3 IRadAn=         5 AccDes= 0.00D+00
 Harris functional with IExCor= 1009 and IRadAn=       5 diagonalized for initial guess.
 HarFok:  IExCor= 1009 AccDes= 0.00D+00 IRadAn=         5 IDoV= 1 UseB2=F ITyADJ=14
 ICtDFT=  3500011 ScaDFX=  1.000000  1.000000  1.000000  1.000000
 Defaulting to unpruned grid for atomic number  80.
 FoFCou: FMM=F IPFlag=           0 FMFlag=      100000 FMFlg1=           0
         NFxFlg=           0 DoJE=T BraDBF=F KetDBF=T FulRan=T
         wScrn=  0.000000 ICntrl=       500 IOpCl=  0 I1Cent=   200000004 NGrid=           0
         NMat0=    1 NMatS0=      1 NMatT0=    0 NMatD0=    1 NMtDS0=    0 NMtDT0=    0
 Petite list used in FoFCou.
 Keep R1 ints in memory in canonical form, NReq=23103219.
 Requested convergence on RMS density matrix=1.00D-08 within 128 cycles.
 Requested convergence on MAX density matrix=1.00D-06.
 Requested convergence on             energy=1.00D-06.
 No special actions if energy rises.
 Integral accuracy reduced to 1.0D-05 until final iterations.
 Defaulting to unpruned grid for atomic number  80.
 Defaulting to unpruned grid for atomic number  80.
 Defaulting to unpruned grid for atomic number  80.
 Defaulting to unpruned grid for atomic number  80.
 Defaulting to unpruned grid for atomic number  80.
 Defaulting to unpruned grid for atomic number  80.
 Defaulting to unpruned grid for atomic number  80.
 Defaulting to unpruned grid for atomic number  80.
 Defaulting to unpruned grid for atomic number  80.
 Defaulting to unpruned grid for atomic number  80.
 Defaulting to unpruned grid for atomic number  80.
 Defaulting to unpruned grid for atomic number  80.
 Defaulting to unpruned grid for atomic number  80.
 Defaulting to unpruned grid for atomic number  80.
 Defaulting to unpruned grid for atomic number  80.
 Defaulting to unpruned grid for atomic number  80.
 Defaulting to unpruned grid for atomic number  80.
 Defaulting to unpruned grid for atomic number  80.
 Defaulting to unpruned grid for atomic number  80.
 Defaulting to unpruned grid for atomic number  80.
 Defaulting to unpruned grid for atomic number  80.
 Defaulting to unpruned grid for atomic number  80.
 Defaulting to unpruned grid for atomic number  80.
 Defaulting to unpruned grid for atomic number  80.
 Initial convergence to 1.0D-05 achieved.  Increase integral accuracy.
 SCF Done:  E(RPBE1PBE) =  -192.992189219     A.U. after   12 cycles
            NFock= 12  Conv=0.93D-08     -V/T= 3.1412

 **********************************************************************

            Population analysis using the SCF density.

 **********************************************************************

 Orbital symmetries:
       Occupied  (A) (A) (A) (A) (A) (A) (A) (A) (A) (A) (A) (A)
                 (A) (A)
       Virtual   (A) (A) (A) (A) (A) (A) (A) (A) (A) (A) (A) (A)
                 (A) (A) (A) (A) (A) (A) (A) (A) (A) (A) (A) (A)
                 (A) (A) (A) (A) (A) (A) (A) (A) (A) (A) (A) (A)
                 (A) (A) (A) (A) (A) (A) (A) (A) (A) (A) (A)
 The electronic state is 1-A.
 Alpha  occ. eigenvalues --  -10.50611  -4.76391  -2.89768  -2.88771  -2.88771
 Alpha  occ. eigenvalues --   -0.93692  -0.73181  -0.72726  -0.72726  -0.71041
 Alpha  occ. eigenvalues --   -0.71041  -0.63987  -0.63987  -0.56432
 Alpha virt. eigenvalues --   -0.35007  -0.19903  -0.19903  -0.12019  -0.05663
 Alpha virt. eigenvalues --   -0.03798  -0.03798   0.00784   0.20694   0.20694
 Alpha virt. eigenvalues --    0.26459   0.26459   0.31263   0.38511   0.38512
 Alpha virt. eigenvalues --    0.38531   0.47403   0.47711   0.47711   0.51203
 Alpha virt. eigenvalues --    0.60797   0.60797   0.83034   1.00397   1.00397
 Alpha virt. eigenvalues --    1.27391   1.31190   1.31345   1.31345   1.32341
 Alpha virt. eigenvalues --    1.32341   1.33092   1.33099   1.54839   1.54839
 Alpha virt. eigenvalues --    1.61788   1.76142   1.76142   1.88191   1.97588
 Alpha virt. eigenvalues --    2.21019   2.21019   2.51888   2.69434   2.69435
 Alpha virt. eigenvalues --   32.91162 121.16738
          Condensed to atoms (all electrons):
               1          2          3          4          5
     1  C    4.818748   0.285350   0.387924   0.387924   0.387923
     2  Hg   0.285350  19.041281  -0.016756  -0.016756  -0.016757
     3  H    0.387924  -0.016756   0.467117  -0.009847  -0.009847
     4  H    0.387924  -0.016756  -0.009847   0.467116  -0.009847
     5  H    0.387923  -0.016757  -0.009847  -0.009847   0.467117
 Mulliken charges:
               1
     1  C   -0.267868
     2  Hg   0.723638
     3  H    0.181410
     4  H    0.181410
     5  H    0.181411
 Sum of Mulliken charges =   1.00000
 Mulliken charges with hydrogens summed into heavy atoms:
               1
     1  C    0.276362
     2  Hg   0.723638
 Electronic spatial extent (au):  <R**2>=            207.9418
 Charge=              1.0000 electrons
 Dipole moment (field-independent basis, Debye):
    X=             -0.1526    Y=              0.4566    Z=              1.5244  Tot=              1.5986
 Quadrupole moment (field-independent basis, Debye-Ang):
   XX=            -26.3451   YY=            -25.6227   ZZ=            -17.3717
   XY=             -0.2717   XZ=             -0.9072   YZ=              2.7150
 Traceless Quadrupole moment (field-independent basis, Debye-Ang):
   XX=             -3.2319   YY=             -2.5095   ZZ=              5.7414
   XY=             -0.2717   XZ=             -0.9072   YZ=              2.7150
 Octapole moment (field-independent basis, Debye-Ang**2):
  XXX=              1.9408  YYY=             -7.3557  ZZZ=             -9.6673  XYY=              1.0015
  XXY=             -1.2725  XXZ=             -7.7949  XZZ=             -0.5812  YZZ=              1.5621
  YYZ=             -6.1288  XYZ=             -0.4040
 Hexadecapole moment (field-independent basis, Debye-Ang**3):
 XXXX=            -31.3628 YYYY=            -44.1267 ZZZZ=           -141.9443 XXXY=              0.9931
 XXXZ=              5.8019 YYYX=              2.8200 YYYZ=            -20.0406 ZZZX=              4.6173
 ZZZY=            -15.0599 XXYY=            -11.0485 XXZZ=            -32.8650 YYZZ=            -30.5752
 XXYZ=             -4.2642 YYXZ=              2.7344 ZZXY=              0.1266
 N-N= 4.988768444108D+01 E-N=-5.044046423479D+02  KE= 9.013410837822D+01
 PrsmSu:  requested number of processors reduced to:  13 ShMem   1 Linda.
   1 Symmetry operations used in ECPInt.
 ECPInt:  NShTT=     378 NPrTT=    1116 LenC2=     379 LenP2D=    1058.
 LDataN:  DoStor=T MaxTD1= 9 Len=  602
 Calling FoFJK, ICntrl=      2127 FMM=F ISym2X=0 I1Cent= 0 IOpClX= 0 NMat=1 NMatS=1 NMatT=0.
 Defaulting to unpruned grid for atomic number  80.
 Defaulting to unpruned grid for atomic number  80.
 Defaulting to unpruned grid for atomic number  80.
 Defaulting to unpruned grid for atomic number  80.
 Defaulting to unpruned grid for atomic number  80.
 Defaulting to unpruned grid for atomic number  80.
 Defaulting to unpruned grid for atomic number  80.
 Defaulting to unpruned grid for atomic number  80.
 Defaulting to unpruned grid for atomic number  80.
 Defaulting to unpruned grid for atomic number  80.
 Defaulting to unpruned grid for atomic number  80.
 Defaulting to unpruned grid for atomic number  80.
 Defaulting to unpruned grid for atomic number  80.
 Defaulting to unpruned grid for atomic number  80.
 Defaulting to unpruned grid for atomic number  80.
 Defaulting to unpruned grid for atomic number  80.
 Defaulting to unpruned grid for atomic number  80.
 Defaulting to unpruned grid for atomic number  80.
 Defaulting to unpruned grid for atomic number  80.
 Defaulting to unpruned grid for atomic number  80.
 Defaulting to unpruned grid for atomic number  80.
 Defaulting to unpruned grid for atomic number  80.
 Defaulting to unpruned grid for atomic number  80.
 Defaulting to unpruned grid for atomic number  80.
 ***** Axes restored to original set *****
 -------------------------------------------------------------------
 Center     Atomic                   Forces (Hartrees/Bohr)
 Number     Number              X              Y              Z
 -------------------------------------------------------------------
      1        6          -0.005677476   -0.005667804   -0.000006443
      2       80          -0.013562354   -0.013547130   -0.000017704
      3        1           0.010330867    0.002477025    0.006274385
      4        1           0.008290830    0.004534481   -0.007928767
      5        1           0.000618133    0.012203428    0.001678529
 -------------------------------------------------------------------
 Cartesian Forces:  Max     0.013562354 RMS     0.007695620

 GradGradGradGradGradGradGradGradGradGradGradGradGradGradGradGradGradGrad
 Berny optimization.
 FormGI is forming the generalized inverse of G from B-inverse, IUseBI=4.
 Internal  Forces:  Max     0.019169311 RMS     0.007399531
 Search for a local minimum.
 Step number   1 out of a maximum of   24
 All quantities printed in internal units (Hartrees-Bohrs-Radians)
 Mixed Optimization -- RFO/linear search
 Second derivative matrix not updated -- first step.
 The second derivative matrix:
                          R1        R2        R3        R4        A1
           R1           0.11699
           R2           0.00000   0.34648
           R3           0.00000   0.00000   0.34648
           R4           0.00000   0.00000   0.00000   0.34648
           A1           0.00000   0.00000   0.00000   0.00000   0.16000
           A2           0.00000   0.00000   0.00000   0.00000   0.00000
           A3           0.00000   0.00000   0.00000   0.00000   0.00000
           A4           0.00000   0.00000   0.00000   0.00000   0.00000
           A5           0.00000   0.00000   0.00000   0.00000   0.00000
           A6           0.00000   0.00000   0.00000   0.00000   0.00000
           D1           0.00000   0.00000   0.00000   0.00000   0.00000
           D2           0.00000   0.00000   0.00000   0.00000   0.00000
           D3           0.00000   0.00000   0.00000   0.00000   0.00000
           D4           0.00000   0.00000   0.00000   0.00000   0.00000
                          A2        A3        A4        A5        A6
           A2           0.16000
           A3           0.00000   0.16000
           A4           0.00000   0.00000   0.16000
           A5           0.00000   0.00000   0.00000   0.16000
           A6           0.00000   0.00000   0.00000   0.00000   0.16000
           D1           0.00000   0.00000   0.00000   0.00000   0.00000
           D2           0.00000   0.00000   0.00000   0.00000   0.00000
           D3           0.00000   0.00000   0.00000   0.00000   0.00000
           D4           0.00000   0.00000   0.00000   0.00000   0.00000
                          D1        D2        D3        D4
           D1           0.00230
           D2           0.00000   0.00230
           D3           0.00000   0.00000   0.00230
           D4           0.00000   0.00000   0.00000   0.00230
 ITU=  0
     Eigenvalues ---    0.04938   0.05614   0.08895   0.11699   0.16000
     Eigenvalues ---    0.16000   0.34648   0.34648   0.34648
 RFO step:  Lambda=-7.68093177D-03 EMin= 4.93844658D-02
 Linear search not attempted -- first point.
 Iteration  1 RMS(Cart)=  0.06907430 RMS(Int)=  0.00397084
 Iteration  2 RMS(Cart)=  0.00211150 RMS(Int)=  0.00338303
 Iteration  3 RMS(Cart)=  0.00000235 RMS(Int)=  0.00338303
 Iteration  4 RMS(Cart)=  0.00000001 RMS(Int)=  0.00338303
 Variable       Old X    -DE/DX   Delta X   Delta X   Delta X     New X
                                 (Linear)    (Quad)   (Total)
    R1        4.17539  -0.01917   0.00000  -0.15376  -0.15376   4.02163
    R2        2.06250   0.00513   0.00000   0.01450   0.01450   2.07700
    R3        2.06250   0.00513   0.00000   0.01449   0.01449   2.07699
    R4        2.06251   0.00513   0.00000   0.01449   0.01449   2.07699
    A1        1.88723  -0.00243   0.00000  -0.06215  -0.05980   1.82743
    A2        1.88723  -0.00383   0.00000  -0.06487  -0.06299   1.82424
    A3        1.88720  -0.00757   0.00000  -0.06792  -0.06724   1.81997
    A4        1.93345   0.00069   0.00000   0.05792   0.05016   1.98361
    A5        1.93346   0.00585   0.00000   0.06348   0.05782   1.99128
    A6        1.93346   0.00659   0.00000   0.06358   0.05812   1.99158
    D1        2.06513  -0.00488   0.00000  -0.08154  -0.08316   1.98198
    D2       -2.06513   0.00418   0.00000   0.08019   0.08206  -1.98307
    D3        2.06513  -0.00546   0.00000  -0.08343  -0.08572   1.97940
    D4       -2.15293  -0.00964   0.00000  -0.16362  -0.16778  -2.32072
         Item               Value     Threshold  Converged?
 Maximum Force            0.019169     0.000450     NO 
 RMS     Force            0.007400     0.000300     NO 
 Maximum Displacement     0.141560     0.001800     NO 
 RMS     Displacement     0.069177     0.001200     NO 
 Predicted change in Energy=-4.403992D-03
 GradGradGradGradGradGradGradGradGradGradGradGradGradGradGradGradGradGrad

                          Input orientation:                          
 ---------------------------------------------------------------------
 Center     Atomic      Atomic             Coordinates (Angstroms)
 Number     Number       Type             X           Y           Z
 ---------------------------------------------------------------------
      1          6           0       -4.925152    1.535213   -0.000350
      2         80           0       -3.420941    3.040667    0.000463
      3          1           0       -4.622740    0.838246    0.793882
      4          1           0       -4.879808    1.100875   -1.008968
      5          1           0       -5.855135    2.081167    0.211972
 ---------------------------------------------------------------------
                    Distance matrix (angstroms):
                    1          2          3          4          5
     1  C    0.000000
     2  Hg   2.128155   0.000000
     3  H    1.099100   2.631443   0.000000
     4  H    1.099097   2.628696   1.839925   0.000000
     5  H    1.099097   2.625011   1.844524   1.844703   0.000000
 Stoichiometry    CH3Hg(1+)
 Framework group  C1[X(CH3Hg)]
 Deg. of freedom     9
 Full point group                 C1      NOp   1
 Largest Abelian subgroup         C1      NOp   1
 Largest concise Abelian subgroup C1      NOp   1
                         Standard orientation:                         
 ---------------------------------------------------------------------
 Center     Atomic      Atomic             Coordinates (Angstroms)
 Number     Number       Type             X           Y           Z
 ---------------------------------------------------------------------
      1          6           0       -1.903672   -0.000591    0.000006
      2         80           0        0.224483    0.000042   -0.000017
      3          1           0       -2.182817    0.516570   -0.928780
      4          1           0       -2.179412    0.549267    0.910851
      5          1           0       -2.174393   -1.065652    0.019256
 ---------------------------------------------------------------------
 Rotational constants (GHZ):         147.6253457           7.3714246           7.3701782
 Standard basis: def2SVP (5D, 7F)
 There are    67 symmetry adapted cartesian basis functions of A   symmetry.
 There are    61 symmetry adapted basis functions of A   symmetry.
    61 basis functions,   111 primitive gaussians,    67 cartesian basis functions
    14 alpha electrons       14 beta electrons
       nuclear repulsion energy        51.4462936157 Hartrees.
 NAtoms=    5 NActive=    5 NUniq=    5 SFac= 1.00D+00 NAtFMM=   60 NAOKFM=F Big=F
 Integral buffers will be    131072 words long.
 Raffenetti 2 integral format.
 Two-electron integral symmetry is turned on.
 One-electron integrals computed using PRISM.
 PrsmSu:  requested number of processors reduced to:  13 ShMem   1 Linda.
   1 Symmetry operations used in ECPInt.
 ECPInt:  NShTT=     378 NPrTT=    1116 LenC2=     379 LenP2D=    1060.
 LDataN:  DoStor=T MaxTD1= 8 Len=  415
 NBasis=    61 RedAO= T EigKep=  9.80D-03  NBF=    61
 NBsUse=    61 1.00D-06 EigRej= -1.00D+00 NBFU=    61
 Defaulting to unpruned grid for atomic number  80.
 Initial guess from the checkpoint file:  "ch3hg_gas_apfd.chk"
 B after Tr=     0.000000    0.000000   -0.000000
         Rot=    0.726937   -0.139181    0.668945   -0.068579 Ang= -86.74 deg.
 ExpMin= 5.64D-02 ExpMax= 1.24D+03 ExpMxC= 1.86D+02 IAcc=2 IRadAn=         4 AccDes= 0.00D+00
 Harris functional with IExCor= 1009 and IRadAn=       4 diagonalized for initial guess.
 HarFok:  IExCor= 1009 AccDes= 0.00D+00 IRadAn=         4 IDoV= 1 UseB2=F ITyADJ=14
 ICtDFT=  3500011 ScaDFX=  1.000000  1.000000  1.000000  1.000000
 Defaulting to unpruned grid for atomic number  80.
 FoFCou: FMM=F IPFlag=           0 FMFlag=      100000 FMFlg1=           0
         NFxFlg=           0 DoJE=T BraDBF=F KetDBF=T FulRan=T
         wScrn=  0.000000 ICntrl=       500 IOpCl=  0 I1Cent=   200000004 NGrid=           0
         NMat0=    1 NMatS0=      1 NMatT0=    0 NMatD0=    1 NMtDS0=    0 NMtDT0=    0
 Petite list used in FoFCou.
 Keep R1 ints in memory in canonical form, NReq=23103219.
 Requested convergence on RMS density matrix=1.00D-08 within 128 cycles.
 Requested convergence on MAX density matrix=1.00D-06.
 Requested convergence on             energy=1.00D-06.
 No special actions if energy rises.
 Integral accuracy reduced to 1.0D-05 until final iterations.
 Defaulting to unpruned grid for atomic number  80.
 Defaulting to unpruned grid for atomic number  80.
 Defaulting to unpruned grid for atomic number  80.
 Defaulting to unpruned grid for atomic number  80.
 Defaulting to unpruned grid for atomic number  80.
 Defaulting to unpruned grid for atomic number  80.
 Defaulting to unpruned grid for atomic number  80.
 Defaulting to unpruned grid for atomic number  80.
 Defaulting to unpruned grid for atomic number  80.
 Defaulting to unpruned grid for atomic number  80.
 Defaulting to unpruned grid for atomic number  80.
 Defaulting to unpruned grid for atomic number  80.
 Defaulting to unpruned grid for atomic number  80.
 Defaulting to unpruned grid for atomic number  80.
 Defaulting to unpruned grid for atomic number  80.
 Defaulting to unpruned grid for atomic number  80.
 Defaulting to unpruned grid for atomic number  80.
 Defaulting to unpruned grid for atomic number  80.
 Defaulting to unpruned grid for atomic number  80.
 Defaulting to unpruned grid for atomic number  80.
 Defaulting to unpruned grid for atomic number  80.
 Defaulting to unpruned grid for atomic number  80.
 Defaulting to unpruned grid for atomic number  80.
 Defaulting to unpruned grid for atomic number  80.
 Initial convergence to 1.0D-05 achieved.  Increase integral accuracy.
 SCF Done:  E(RPBE1PBE) =  -192.996563789     A.U. after   11 cycles
            NFock= 11  Conv=0.76D-08     -V/T= 3.1410
 PrsmSu:  requested number of processors reduced to:  13 ShMem   1 Linda.
   1 Symmetry operations used in ECPInt.
 ECPInt:  NShTT=     378 NPrTT=    1116 LenC2=     379 LenP2D=    1060.
 LDataN:  DoStor=T MaxTD1= 9 Len=  602
 Calling FoFJK, ICntrl=      2127 FMM=F ISym2X=0 I1Cent= 0 IOpClX= 0 NMat=1 NMatS=1 NMatT=0.
 Defaulting to unpruned grid for atomic number  80.
 Defaulting to unpruned grid for atomic number  80.
 Defaulting to unpruned grid for atomic number  80.
 Defaulting to unpruned grid for atomic number  80.
 Defaulting to unpruned grid for atomic number  80.
 Defaulting to unpruned grid for atomic number  80.
 Defaulting to unpruned grid for atomic number  80.
 Defaulting to unpruned grid for atomic number  80.
 Defaulting to unpruned grid for atomic number  80.
 Defaulting to unpruned grid for atomic number  80.
 Defaulting to unpruned grid for atomic number  80.
 Defaulting to unpruned grid for atomic number  80.
 Defaulting to unpruned grid for atomic number  80.
 Defaulting to unpruned grid for atomic number  80.
 Defaulting to unpruned grid for atomic number  80.
 Defaulting to unpruned grid for atomic number  80.
 Defaulting to unpruned grid for atomic number  80.
 Defaulting to unpruned grid for atomic number  80.
 Defaulting to unpruned grid for atomic number  80.
 Defaulting to unpruned grid for atomic number  80.
 Defaulting to unpruned grid for atomic number  80.
 Defaulting to unpruned grid for atomic number  80.
 Defaulting to unpruned grid for atomic number  80.
 Defaulting to unpruned grid for atomic number  80.
 ***** Axes restored to original set *****
 -------------------------------------------------------------------
 Center     Atomic                   Forces (Hartrees/Bohr)
 Number     Number              X              Y              Z
 -------------------------------------------------------------------
      1        6          -0.004900602   -0.005247678   -0.000153564
      2       80          -0.000393961   -0.000639613    0.000040109
      3        1           0.001670695    0.002377432   -0.000010954
      4        1           0.001564230    0.002246109    0.000250743
      5        1           0.002059638    0.001263750   -0.000126333
 -------------------------------------------------------------------
 Cartesian Forces:  Max     0.005247678 RMS     0.002221064

 GradGradGradGradGradGradGradGradGradGradGradGradGradGradGradGradGradGrad
 Berny optimization.
 Using GEDIIS/GDIIS optimizer.
 FormGI is forming the generalized inverse of G from B-inverse, IUseBI=4.
 Internal  Forces:  Max     0.002274596 RMS     0.001083938
 Search for a local minimum.
 Step number   2 out of a maximum of   24
 All quantities printed in internal units (Hartrees-Bohrs-Radians)
 Mixed Optimization -- RFO/linear search
 Update second derivatives using D2CorX and points    1    2
 DE= -4.37D-03 DEPred=-4.40D-03 R= 9.93D-01
 TightC=F SS=  1.41D+00  RLast= 3.08D-01 DXNew= 5.0454D-01 9.2331D-01
 Trust test= 9.93D-01 RLast= 3.08D-01 DXMaxT set to 5.05D-01
 The second derivative matrix:
                          R1        R2        R3        R4        A1
           R1           0.11830
           R2          -0.00325   0.34836
           R3          -0.00324   0.00187   0.34835
           R4          -0.00348   0.00195   0.00195   0.34851
           A1          -0.02160   0.00576   0.00576   0.00573   0.14639
           A2          -0.01946   0.00496   0.00496   0.00492  -0.01402
           A3          -0.01163   0.00222   0.00222   0.00214  -0.01410
           A4           0.02160  -0.00600  -0.00599  -0.00599   0.01175
           A5           0.01145  -0.00240  -0.00240  -0.00233   0.01226
           A6           0.00962  -0.00178  -0.00178  -0.00170   0.01215
           D1           0.01008  -0.00341  -0.00341  -0.00346   0.00073
           D2          -0.00808   0.00274   0.00274   0.00278  -0.00054
           D3           0.01124  -0.00381  -0.00380  -0.00386   0.00083
           D4           0.01933  -0.00655  -0.00654  -0.00664   0.00137
                          A2        A3        A4        A5        A6
           A2           0.14577
           A3          -0.01368   0.14864
           A4           0.01234   0.01306   0.15010
           A5           0.01201   0.01028  -0.01125   0.15076
           A6           0.01176   0.00966  -0.01129  -0.00877   0.15178
           D1           0.00145   0.00345   0.00011  -0.00266  -0.00307
           D2          -0.00112  -0.00274  -0.00013   0.00211   0.00244
           D3           0.00164   0.00386   0.00011  -0.00298  -0.00344
           D4           0.00276   0.00660   0.00024  -0.00510  -0.00588
                          D1        D2        D3        D4
           D1           0.00450
           D2          -0.00178   0.00375
           D3           0.00244  -0.00198   0.00502
           D4           0.00423  -0.00343   0.00470   0.01043
 ITU=  1  0
 Use linear search instead of GDIIS.
     Eigenvalues ---    0.04275   0.05800   0.09656   0.11810   0.16000
     Eigenvalues ---    0.16172   0.34648   0.34648   0.35252
 RFO step:  Lambda=-1.26197102D-04 EMin= 4.27501564D-02
 Quartic linear search produced a step of  0.14256.
 Iteration  1 RMS(Cart)=  0.01128111 RMS(Int)=  0.00071201
 Iteration  2 RMS(Cart)=  0.00015234 RMS(Int)=  0.00069517
 Iteration  3 RMS(Cart)=  0.00000001 RMS(Int)=  0.00069517
 Variable       Old X    -DE/DX   Delta X   Delta X   Delta X     New X
                                 (Linear)    (Quad)   (Total)
    R1        4.02163  -0.00073  -0.02192   0.01676  -0.00516   4.01647
    R2        2.07700  -0.00106   0.00207  -0.00562  -0.00355   2.07345
    R3        2.07699  -0.00105   0.00207  -0.00561  -0.00354   2.07345
    R4        2.07699  -0.00114   0.00207  -0.00589  -0.00383   2.07317
    A1        1.82743  -0.00067  -0.00852  -0.01050  -0.01855   1.80888
    A2        1.82424  -0.00080  -0.00898  -0.00831  -0.01692   1.80732
    A3        1.81997  -0.00103  -0.00959  -0.00515  -0.01464   1.80533
    A4        1.98361   0.00048   0.00715   0.01068   0.01627   1.99988
    A5        1.99128   0.00074   0.00824   0.00437   0.01139   2.00267
    A6        1.99158   0.00077   0.00829   0.00400   0.01111   2.00269
    D1        1.98198  -0.00105  -0.01185  -0.01235  -0.02457   1.95741
    D2       -1.98307   0.00107   0.01170   0.01355   0.02559  -1.95747
    D3        1.97940  -0.00120  -0.01222  -0.01111  -0.02377   1.95563
    D4       -2.32072  -0.00227  -0.02392  -0.02466  -0.04936  -2.37008
         Item               Value     Threshold  Converged?
 Maximum Force            0.002275     0.000450     NO 
 RMS     Force            0.001084     0.000300     NO 
 Maximum Displacement     0.019157     0.001800     NO 
 RMS     Displacement     0.011265     0.001200     NO 
 Predicted change in Energy=-1.467716D-04
 GradGradGradGradGradGradGradGradGradGradGradGradGradGradGradGradGradGrad

                          Input orientation:                          
 ---------------------------------------------------------------------
 Center     Atomic      Atomic             Coordinates (Angstroms)
 Number     Number       Type             X           Y           Z
 ---------------------------------------------------------------------
      1          6           0       -4.932410    1.527748   -0.000606
      2         80           0       -3.429386    3.030530    0.000687
      3          1           0       -4.615525    0.844143    0.796993
      4          1           0       -4.874396    1.106962   -1.012274
      5          1           0       -5.852061    2.086786    0.212199
 ---------------------------------------------------------------------
                    Distance matrix (angstroms):
                    1          2          3          4          5
     1  C    0.000000
     2  Hg   2.125426   0.000000
     3  H    1.097221   2.611765   0.000000
     4  H    1.097224   2.610413   1.846492   0.000000
     5  H    1.097072   2.608590   1.848017   1.848031   0.000000
 Stoichiometry    CH3Hg(1+)
 Framework group  C1[X(CH3Hg)]
 Deg. of freedom     9
 Full point group                 C1      NOp   1
 Largest Abelian subgroup         C1      NOp   1
 Largest concise Abelian subgroup C1      NOp   1
                         Standard orientation:                         
 ---------------------------------------------------------------------
 Center     Atomic      Atomic             Coordinates (Angstroms)
 Number     Number       Type             X           Y           Z
 ---------------------------------------------------------------------
      1          6           0       -1.901835   -0.000236   -0.000004
      2         80           0        0.223592    0.000020   -0.000008
      3          1           0       -2.160668    0.529176   -0.925543
      4          1           0       -2.159004    0.537954    0.920928
      5          1           0       -2.156653   -1.067291    0.005286
 ---------------------------------------------------------------------
 Rotational constants (GHZ):         146.9121485           7.4148795           7.4144664
 Standard basis: def2SVP (5D, 7F)
 There are    67 symmetry adapted cartesian basis functions of A   symmetry.
 There are    61 symmetry adapted basis functions of A   symmetry.
    61 basis functions,   111 primitive gaussians,    67 cartesian basis functions
    14 alpha electrons       14 beta electrons
       nuclear repulsion energy        51.5816171790 Hartrees.
 NAtoms=    5 NActive=    5 NUniq=    5 SFac= 1.00D+00 NAtFMM=   60 NAOKFM=F Big=F
 Integral buffers will be    131072 words long.
 Raffenetti 2 integral format.
 Two-electron integral symmetry is turned on.
 One-electron integrals computed using PRISM.
 PrsmSu:  requested number of processors reduced to:  13 ShMem   1 Linda.
   1 Symmetry operations used in ECPInt.
 ECPInt:  NShTT=     378 NPrTT=    1116 LenC2=     379 LenP2D=    1060.
 LDataN:  DoStor=T MaxTD1= 8 Len=  415
 NBasis=    61 RedAO= T EigKep=  9.78D-03  NBF=    61
 NBsUse=    61 1.00D-06 EigRej= -1.00D+00 NBFU=    61
 Defaulting to unpruned grid for atomic number  80.
 Initial guess from the checkpoint file:  "ch3hg_gas_apfd.chk"
 B after Tr=    -0.000000    0.000000   -0.000000
         Rot=    0.999979   -0.006482    0.000039    0.000090 Ang=  -0.74 deg.
 Keep R1 ints in memory in canonical form, NReq=23103219.
 Requested convergence on RMS density matrix=1.00D-08 within 128 cycles.
 Requested convergence on MAX density matrix=1.00D-06.
 Requested convergence on             energy=1.00D-06.
 No special actions if energy rises.
 Defaulting to unpruned grid for atomic number  80.
 Defaulting to unpruned grid for atomic number  80.
 Defaulting to unpruned grid for atomic number  80.
 Defaulting to unpruned grid for atomic number  80.
 Defaulting to unpruned grid for atomic number  80.
 Defaulting to unpruned grid for atomic number  80.
 Defaulting to unpruned grid for atomic number  80.
 Defaulting to unpruned grid for atomic number  80.
 Defaulting to unpruned grid for atomic number  80.
 Defaulting to unpruned grid for atomic number  80.
 Defaulting to unpruned grid for atomic number  80.
 Defaulting to unpruned grid for atomic number  80.
 Defaulting to unpruned grid for atomic number  80.
 Defaulting to unpruned grid for atomic number  80.
 Defaulting to unpruned grid for atomic number  80.
 Defaulting to unpruned grid for atomic number  80.
 Defaulting to unpruned grid for atomic number  80.
 Defaulting to unpruned grid for atomic number  80.
 Defaulting to unpruned grid for atomic number  80.
 Defaulting to unpruned grid for atomic number  80.
 Defaulting to unpruned grid for atomic number  80.
 Defaulting to unpruned grid for atomic number  80.
 Defaulting to unpruned grid for atomic number  80.
 Defaulting to unpruned grid for atomic number  80.
 SCF Done:  E(RPBE1PBE) =  -192.996735272     A.U. after    8 cycles
            NFock=  8  Conv=0.69D-08     -V/T= 3.1407
 PrsmSu:  requested number of processors reduced to:  13 ShMem   1 Linda.
   1 Symmetry operations used in ECPInt.
 ECPInt:  NShTT=     378 NPrTT=    1116 LenC2=     379 LenP2D=    1060.
 LDataN:  DoStor=T MaxTD1= 9 Len=  602
 Calling FoFJK, ICntrl=      2127 FMM=F ISym2X=0 I1Cent= 0 IOpClX= 0 NMat=1 NMatS=1 NMatT=0.
 Defaulting to unpruned grid for atomic number  80.
 Defaulting to unpruned grid for atomic number  80.
 Defaulting to unpruned grid for atomic number  80.
 Defaulting to unpruned grid for atomic number  80.
 Defaulting to unpruned grid for atomic number  80.
 Defaulting to unpruned grid for atomic number  80.
 Defaulting to unpruned grid for atomic number  80.
 Defaulting to unpruned grid for atomic number  80.
 Defaulting to unpruned grid for atomic number  80.
 Defaulting to unpruned grid for atomic number  80.
 Defaulting to unpruned grid for atomic number  80.
 Defaulting to unpruned grid for atomic number  80.
 Defaulting to unpruned grid for atomic number  80.
 Defaulting to unpruned grid for atomic number  80.
 Defaulting to unpruned grid for atomic number  80.
 Defaulting to unpruned grid for atomic number  80.
 Defaulting to unpruned grid for atomic number  80.
 Defaulting to unpruned grid for atomic number  80.
 Defaulting to unpruned grid for atomic number  80.
 Defaulting to unpruned grid for atomic number  80.
 Defaulting to unpruned grid for atomic number  80.
 Defaulting to unpruned grid for atomic number  80.
 Defaulting to unpruned grid for atomic number  80.
 Defaulting to unpruned grid for atomic number  80.
 ***** Axes restored to original set *****
 -------------------------------------------------------------------
 Center     Atomic                   Forces (Hartrees/Bohr)
 Number     Number              X              Y              Z
 -------------------------------------------------------------------
      1        6          -0.002291638   -0.002517363   -0.000088755
      2       80           0.000992156    0.000872642    0.000021373
      3        1           0.000576707    0.000561731    0.000209667
      4        1           0.000455858    0.000568676   -0.000177043
      5        1           0.000266918    0.000514314    0.000034758
 -------------------------------------------------------------------
 Cartesian Forces:  Max     0.002517363 RMS     0.000997816

 GradGradGradGradGradGradGradGradGradGradGradGradGradGradGradGradGradGrad
 Berny optimization.
 Using GEDIIS/GDIIS optimizer.
 FormGI is forming the generalized inverse of G from B-inverse, IUseBI=4.
 Internal  Forces:  Max     0.001318631 RMS     0.000443817
 Search for a local minimum.
 Step number   3 out of a maximum of   24
 All quantities printed in internal units (Hartrees-Bohrs-Radians)
 Mixed Optimization -- En-DIIS/RFO-DIIS
 Update second derivatives using D2CorX and points    1    2    3
 DE= -1.71D-04 DEPred=-1.47D-04 R= 1.17D+00
 TightC=F SS=  1.41D+00  RLast= 7.54D-02 DXNew= 8.4853D-01 2.2628D-01
 Trust test= 1.17D+00 RLast= 7.54D-02 DXMaxT set to 5.05D-01
 The second derivative matrix:
                          R1        R2        R3        R4        A1
           R1           0.14191
           R2           0.00235   0.34893
           R3           0.00235   0.00245   0.34892
           R4           0.00355   0.00287   0.00287   0.34986
           A1          -0.02568   0.00161   0.00162   0.00131   0.13507
           A2          -0.02123   0.00171   0.00172   0.00153  -0.02443
           A3          -0.01008  -0.00020  -0.00019  -0.00022  -0.02490
           A4           0.02570  -0.00246  -0.00247  -0.00218   0.02075
           A5           0.01030  -0.00067  -0.00068  -0.00066   0.01999
           A6           0.00828   0.00000  -0.00001   0.00002   0.02025
           D1           0.01615  -0.00250  -0.00250  -0.00218  -0.00239
           D2          -0.01494   0.00140   0.00140   0.00102   0.00179
           D3           0.01889  -0.00250  -0.00250  -0.00209  -0.00248
           D4           0.03383  -0.00390  -0.00390  -0.00311  -0.00427
                          A2        A3        A4        A5        A6
           A2           0.13637
           A3          -0.02318   0.13951
           A4           0.02067   0.02184   0.14298
           A5           0.01880   0.01681  -0.01753   0.14610
           A6           0.01887   0.01648  -0.01788  -0.01364   0.14670
           D1          -0.00084   0.00204   0.00283  -0.00167  -0.00206
           D2           0.00041  -0.00219  -0.00225   0.00173   0.00208
           D3          -0.00071   0.00261   0.00304  -0.00211  -0.00256
           D4          -0.00112   0.00480   0.00529  -0.00384  -0.00464
                          D1        D2        D3        D4
           D1           0.00571
           D2          -0.00335   0.00563
           D3           0.00407  -0.00402   0.00717
           D4           0.00743  -0.00735   0.00888   0.01853
 ITU=  1  1  0
 Use linear search instead of GDIIS.
     Eigenvalues ---    0.02871   0.05843   0.09846   0.14127   0.16000
     Eigenvalues ---    0.16542   0.34648   0.34649   0.35497
 RFO step:  Lambda=-3.58697970D-05 EMin= 2.87123277D-02
 Quartic linear search produced a step of  0.33922.
 Iteration  1 RMS(Cart)=  0.00466595 RMS(Int)=  0.00014490
 Iteration  2 RMS(Cart)=  0.00004028 RMS(Int)=  0.00013869
 Iteration  3 RMS(Cart)=  0.00000000 RMS(Int)=  0.00013869
 Variable       Old X    -DE/DX   Delta X   Delta X   Delta X     New X
                                 (Linear)    (Quad)   (Total)
    R1        4.01647   0.00132  -0.00175   0.01594   0.01419   4.03066
    R2        2.07345  -0.00003  -0.00120   0.00065  -0.00056   2.07289
    R3        2.07345  -0.00003  -0.00120   0.00065  -0.00056   2.07290
    R4        2.07317   0.00004  -0.00130   0.00099  -0.00031   2.07286
    A1        1.80888  -0.00023  -0.00629  -0.00416  -0.01036   1.79852
    A2        1.80732  -0.00024  -0.00574  -0.00328  -0.00895   1.79837
    A3        1.80533  -0.00022  -0.00497  -0.00216  -0.00713   1.79820
    A4        1.99988   0.00017   0.00552   0.00318   0.00841   2.00829
    A5        2.00267   0.00017   0.00386   0.00200   0.00560   2.00828
    A6        2.00269   0.00017   0.00377   0.00203   0.00555   2.00824
    D1        1.95741  -0.00033  -0.00833  -0.00546  -0.01389   1.94352
    D2       -1.95747   0.00032   0.00868   0.00533   0.01407  -1.94341
    D3        1.95563  -0.00034  -0.00806  -0.00427  -0.01242   1.94321
    D4       -2.37008  -0.00066  -0.01674  -0.00960  -0.02648  -2.39656
         Item               Value     Threshold  Converged?
 Maximum Force            0.001319     0.000450     NO 
 RMS     Force            0.000444     0.000300     NO 
 Maximum Displacement     0.009600     0.001800     NO 
 RMS     Displacement     0.004652     0.001200     NO 
 Predicted change in Energy=-2.945480D-05
 GradGradGradGradGradGradGradGradGradGradGradGradGradGradGradGradGradGrad

                          Input orientation:                          
 ---------------------------------------------------------------------
 Center     Atomic      Atomic             Coordinates (Angstroms)
 Number     Number       Type             X           Y           Z
 ---------------------------------------------------------------------
      1          6           0       -4.937490    1.522672   -0.000811
      2         80           0       -3.428461    3.030066    0.000897
      3          1           0       -4.612509    0.846019    0.799048
      4          1           0       -4.872714    1.108791   -1.014597
      5          1           0       -5.852602    2.088620    0.212461
 ---------------------------------------------------------------------
                    Distance matrix (angstroms):
                    1          2          3          4          5
     1  C    0.000000
     2  Hg   2.132933   0.000000
     3  H    1.096926   2.609420   0.000000
     4  H    1.096930   2.609289   1.850962   0.000000
     5  H    1.096910   2.609126   1.850939   1.850923   0.000000
 Stoichiometry    CH3Hg(1+)
 Framework group  C1[X(CH3Hg)]
 Deg. of freedom     9
 Full point group                 C1      NOp   1
 Largest Abelian subgroup         C1      NOp   1
 Largest concise Abelian subgroup C1      NOp   1
                         Standard orientation:                         
 ---------------------------------------------------------------------
 Center     Atomic      Atomic             Coordinates (Angstroms)
 Number     Number       Type             X           Y           Z
 ---------------------------------------------------------------------
      1          6           0       -1.908902    0.000003   -0.000000
      2         80           0        0.224032    0.000001    0.000001
      3          1           0       -2.156546    1.012798    0.340830
      4          1           0       -2.156386   -0.801655    0.706647
      5          1           0       -2.156194   -0.211243   -1.047585
 ---------------------------------------------------------------------
 Rotational constants (GHZ):         146.3682035           7.3782638           7.3782546
 Standard basis: def2SVP (5D, 7F)
 There are    67 symmetry adapted cartesian basis functions of A   symmetry.
 There are    61 symmetry adapted basis functions of A   symmetry.
    61 basis functions,   111 primitive gaussians,    67 cartesian basis functions
    14 alpha electrons       14 beta electrons
       nuclear repulsion energy        51.4814057221 Hartrees.
 NAtoms=    5 NActive=    5 NUniq=    5 SFac= 1.00D+00 NAtFMM=   60 NAOKFM=F Big=F
 Integral buffers will be    131072 words long.
 Raffenetti 2 integral format.
 Two-electron integral symmetry is turned on.
 One-electron integrals computed using PRISM.
 PrsmSu:  requested number of processors reduced to:  13 ShMem   1 Linda.
   1 Symmetry operations used in ECPInt.
 ECPInt:  NShTT=     378 NPrTT=    1116 LenC2=     379 LenP2D=    1060.
 LDataN:  DoStor=T MaxTD1= 8 Len=  415
 NBasis=    61 RedAO= T EigKep=  9.78D-03  NBF=    61
 NBsUse=    61 1.00D-06 EigRej= -1.00D+00 NBFU=    61
 Defaulting to unpruned grid for atomic number  80.
 Initial guess from the checkpoint file:  "ch3hg_gas_apfd.chk"
 B after Tr=     0.000000    0.000000    0.000000
         Rot=    0.772329   -0.635223   -0.000021    0.000079 Ang= -78.87 deg.
 Keep R1 ints in memory in canonical form, NReq=23103219.
 Requested convergence on RMS density matrix=1.00D-08 within 128 cycles.
 Requested convergence on MAX density matrix=1.00D-06.
 Requested convergence on             energy=1.00D-06.
 No special actions if energy rises.
 Defaulting to unpruned grid for atomic number  80.
 Defaulting to unpruned grid for atomic number  80.
 Defaulting to unpruned grid for atomic number  80.
 Defaulting to unpruned grid for atomic number  80.
 Defaulting to unpruned grid for atomic number  80.
 Defaulting to unpruned grid for atomic number  80.
 Defaulting to unpruned grid for atomic number  80.
 Defaulting to unpruned grid for atomic number  80.
 Defaulting to unpruned grid for atomic number  80.
 Defaulting to unpruned grid for atomic number  80.
 Defaulting to unpruned grid for atomic number  80.
 Defaulting to unpruned grid for atomic number  80.
 Defaulting to unpruned grid for atomic number  80.
 Defaulting to unpruned grid for atomic number  80.
 Defaulting to unpruned grid for atomic number  80.
 Defaulting to unpruned grid for atomic number  80.
 Defaulting to unpruned grid for atomic number  80.
 Defaulting to unpruned grid for atomic number  80.
 Defaulting to unpruned grid for atomic number  80.
 Defaulting to unpruned grid for atomic number  80.
 Defaulting to unpruned grid for atomic number  80.
 Defaulting to unpruned grid for atomic number  80.
 Defaulting to unpruned grid for atomic number  80.
 Defaulting to unpruned grid for atomic number  80.
 SCF Done:  E(RPBE1PBE) =  -192.996769996     A.U. after    8 cycles
            NFock=  8  Conv=0.53D-08     -V/T= 3.1408
 PrsmSu:  requested number of processors reduced to:  13 ShMem   1 Linda.
   1 Symmetry operations used in ECPInt.
 ECPInt:  NShTT=     378 NPrTT=    1116 LenC2=     379 LenP2D=    1060.
 LDataN:  DoStor=T MaxTD1= 9 Len=  602
 Calling FoFJK, ICntrl=      2127 FMM=F ISym2X=0 I1Cent= 0 IOpClX= 0 NMat=1 NMatS=1 NMatT=0.
 Defaulting to unpruned grid for atomic number  80.
 Defaulting to unpruned grid for atomic number  80.
 Defaulting to unpruned grid for atomic number  80.
 Defaulting to unpruned grid for atomic number  80.
 Defaulting to unpruned grid for atomic number  80.
 Defaulting to unpruned grid for atomic number  80.
 Defaulting to unpruned grid for atomic number  80.
 Defaulting to unpruned grid for atomic number  80.
 Defaulting to unpruned grid for atomic number  80.
 Defaulting to unpruned grid for atomic number  80.
 Defaulting to unpruned grid for atomic number  80.
 Defaulting to unpruned grid for atomic number  80.
 Defaulting to unpruned grid for atomic number  80.
 Defaulting to unpruned grid for atomic number  80.
 Defaulting to unpruned grid for atomic number  80.
 Defaulting to unpruned grid for atomic number  80.
 Defaulting to unpruned grid for atomic number  80.
 Defaulting to unpruned grid for atomic number  80.
 Defaulting to unpruned grid for atomic number  80.
 Defaulting to unpruned grid for atomic number  80.
 Defaulting to unpruned grid for atomic number  80.
 Defaulting to unpruned grid for atomic number  80.
 Defaulting to unpruned grid for atomic number  80.
 Defaulting to unpruned grid for atomic number  80.
 ***** Axes restored to original set *****
 -------------------------------------------------------------------
 Center     Atomic                   Forces (Hartrees/Bohr)
 Number     Number              X              Y              Z
 -------------------------------------------------------------------
      1        6          -0.000493577   -0.000491143   -0.000008339
      2       80           0.000430140    0.000418927    0.000004897
      3        1           0.000049505    0.000008230    0.000032296
      4        1           0.000034878    0.000012365   -0.000041129
      5        1          -0.000020946    0.000051620    0.000012275
 -------------------------------------------------------------------
 Cartesian Forces:  Max     0.000493577 RMS     0.000238793

 GradGradGradGradGradGradGradGradGradGradGradGradGradGradGradGradGradGrad
 Berny optimization.
 Using GEDIIS/GDIIS optimizer.
 FormGI is forming the generalized inverse of G from B-inverse, IUseBI=4.
 Internal  Forces:  Max     0.000600389 RMS     0.000162269
 Search for a local minimum.
 Step number   4 out of a maximum of   24
 All quantities printed in internal units (Hartrees-Bohrs-Radians)
 Mixed Optimization -- En-DIIS/RFO-DIIS
 Swapping is turned off.
 Update second derivatives using D2CorX and points    1    2    3    4
 DE= -3.47D-05 DEPred=-2.95D-05 R= 1.18D+00
 TightC=F SS=  1.41D+00  RLast= 4.27D-02 DXNew= 8.4853D-01 1.2797D-01
 Trust test= 1.18D+00 RLast= 4.27D-02 DXMaxT set to 5.05D-01
 The second derivative matrix:
                          R1        R2        R3        R4        A1
           R1           0.11377
           R2           0.00587   0.35116
           R3           0.00584   0.00468   0.35116
           R4           0.00614   0.00542   0.00541   0.35272
           A1          -0.00837  -0.00230  -0.00228  -0.00215   0.12461
           A2          -0.00781  -0.00127  -0.00125  -0.00111  -0.03287
           A3          -0.00137  -0.00254  -0.00251  -0.00242  -0.03056
           A4           0.01113   0.00073   0.00071   0.00064   0.02918
           A5           0.00395   0.00106   0.00105   0.00096   0.02430
           A6           0.00209   0.00185   0.00184   0.00178   0.02440
           D1           0.01263  -0.00064  -0.00063  -0.00050  -0.00185
           D2          -0.01086  -0.00096  -0.00097  -0.00121   0.00151
           D3           0.01453  -0.00018  -0.00016   0.00007  -0.00202
           D4           0.02539   0.00078   0.00080   0.00129  -0.00353
                          A2        A3        A4        A5        A6
           A2           0.12953
           A3          -0.02780   0.13643
           A4           0.02735   0.02609   0.13604
           A5           0.02239   0.01931  -0.02072   0.14404
           A6           0.02233   0.01887  -0.02092  -0.01561   0.14480
           D1          -0.00031   0.00239   0.00190  -0.00167  -0.00201
           D2           0.00020  -0.00204  -0.00143   0.00133   0.00158
           D3          -0.00035   0.00262   0.00203  -0.00180  -0.00216
           D4          -0.00055   0.00467   0.00346  -0.00313  -0.00374
                          D1        D2        D3        D4
           D1           0.00714
           D2          -0.00449   0.00651
           D3           0.00530  -0.00492   0.00811
           D4           0.00979  -0.00912   0.01073   0.02215
 ITU=  1  1  1  0
     Eigenvalues ---    0.02567   0.05878   0.09946   0.11825   0.16000
     Eigenvalues ---    0.16238   0.34647   0.34648   0.36256
 En-DIIS/RFO-DIIS/Sim-DIIS IScMMF=       -3 using points:     4    3
 RFO step:  Lambda=-4.30784160D-06.
 DidBck=F Rises=F RFO-DIIS coefs:    1.19419   -0.19419
 Iteration  1 RMS(Cart)=  0.00128817 RMS(Int)=  0.00001385
 Iteration  2 RMS(Cart)=  0.00000113 RMS(Int)=  0.00001380
 Iteration  3 RMS(Cart)=  0.00000000 RMS(Int)=  0.00001380
 Variable       Old X    -DE/DX   Delta X   Delta X   Delta X     New X
                                 (Linear)    (Quad)   (Total)
    R1        4.03066   0.00060   0.00275   0.00378   0.00654   4.03720
    R2        2.07289   0.00003  -0.00011   0.00007  -0.00004   2.07285
    R3        2.07290   0.00004  -0.00011   0.00008  -0.00003   2.07286
    R4        2.07286   0.00005  -0.00006   0.00007   0.00001   2.07287
    A1        1.79852  -0.00002  -0.00201   0.00031  -0.00169   1.79683
    A2        1.79837  -0.00001  -0.00174   0.00030  -0.00143   1.79694
    A3        1.79820  -0.00001  -0.00138   0.00023  -0.00115   1.79704
    A4        2.00829   0.00000   0.00163  -0.00042   0.00118   2.00947
    A5        2.00828   0.00001   0.00109  -0.00012   0.00094   2.00921
    A6        2.00824   0.00002   0.00108  -0.00008   0.00098   2.00922
    D1        1.94352  -0.00003  -0.00270   0.00037  -0.00234   1.94118
    D2       -1.94341   0.00002   0.00273  -0.00045   0.00228  -1.94112
    D3        1.94321  -0.00002  -0.00241   0.00047  -0.00195   1.94126
    D4       -2.39656  -0.00004  -0.00514   0.00092  -0.00424  -2.40080
         Item               Value     Threshold  Converged?
 Maximum Force            0.000600     0.000450     NO 
 RMS     Force            0.000162     0.000300     YES
 Maximum Displacement     0.002685     0.001800     NO 
 RMS     Displacement     0.001288     0.001200     NO 
 Predicted change in Energy=-2.154676D-06
 GradGradGradGradGradGradGradGradGradGradGradGradGradGradGradGradGradGrad

                          Input orientation:                          
 ---------------------------------------------------------------------
 Center     Atomic      Atomic             Coordinates (Angstroms)
 Number     Number       Type             X           Y           Z
 ---------------------------------------------------------------------
      1          6           0       -4.938651    1.521561   -0.000848
      2         80           0       -3.427041    3.031267    0.000944
      3          1           0       -4.612314    0.845982    0.799338
      4          1           0       -4.872732    1.108710   -1.014961
      5          1           0       -5.853039    2.088648    0.212525
 ---------------------------------------------------------------------
                    Distance matrix (angstroms):
                    1          2          3          4          5
     1  C    0.000000
     2  Hg   2.136394   0.000000
     3  H    1.096906   2.611087   0.000000
     4  H    1.096912   2.611189   1.851628   0.000000
     5  H    1.096914   2.611276   1.851477   1.851487   0.000000
 Stoichiometry    CH3Hg(1+)
 Framework group  C1[X(CH3Hg)]
 Deg. of freedom     9
 Full point group                 C1      NOp   1
 Largest Abelian subgroup         C1      NOp   1
 Largest concise Abelian subgroup C1      NOp   1
                         Standard orientation:                         
 ---------------------------------------------------------------------
 Center     Atomic      Atomic             Coordinates (Angstroms)
 Number     Number       Type             X           Y           Z
 ---------------------------------------------------------------------
      1          6           0       -1.912064   -0.000000    0.000021
      2         80           0        0.224330   -0.000001   -0.000001
      3          1           0       -2.157891    0.910033    0.560922
      4          1           0       -2.158013   -0.940825    0.507539
      5          1           0       -2.158135    0.030840   -1.068491
 ---------------------------------------------------------------------
 Rotational constants (GHZ):         146.2750504           7.3576608           7.3576219
 Standard basis: def2SVP (5D, 7F)
 There are    67 symmetry adapted cartesian basis functions of A   symmetry.
 There are    61 symmetry adapted basis functions of A   symmetry.
    61 basis functions,   111 primitive gaussians,    67 cartesian basis functions
    14 alpha electrons       14 beta electrons
       nuclear repulsion energy        51.4241173400 Hartrees.
 NAtoms=    5 NActive=    5 NUniq=    5 SFac= 1.00D+00 NAtFMM=   60 NAOKFM=F Big=F
 Integral buffers will be    131072 words long.
 Raffenetti 2 integral format.
 Two-electron integral symmetry is turned on.
 One-electron integrals computed using PRISM.
 PrsmSu:  requested number of processors reduced to:  13 ShMem   1 Linda.
   1 Symmetry operations used in ECPInt.
 ECPInt:  NShTT=     378 NPrTT=    1116 LenC2=     379 LenP2D=    1060.
 LDataN:  DoStor=T MaxTD1= 8 Len=  415
 NBasis=    61 RedAO= T EigKep=  9.78D-03  NBF=    61
 NBsUse=    61 1.00D-06 EigRej= -1.00D+00 NBFU=    61
 Defaulting to unpruned grid for atomic number  80.
 Initial guess from the checkpoint file:  "ch3hg_gas_apfd.chk"
 B after Tr=     0.000000    0.000000    0.000000
         Rot=    0.993521   -0.113648   -0.000011    0.000007 Ang= -13.05 deg.
 Keep R1 ints in memory in canonical form, NReq=23103219.
 Requested convergence on RMS density matrix=1.00D-08 within 128 cycles.
 Requested convergence on MAX density matrix=1.00D-06.
 Requested convergence on             energy=1.00D-06.
 No special actions if energy rises.
 Defaulting to unpruned grid for atomic number  80.
 Defaulting to unpruned grid for atomic number  80.
 Defaulting to unpruned grid for atomic number  80.
 Defaulting to unpruned grid for atomic number  80.
 Defaulting to unpruned grid for atomic number  80.
 Defaulting to unpruned grid for atomic number  80.
 Defaulting to unpruned grid for atomic number  80.
 Defaulting to unpruned grid for atomic number  80.
 Defaulting to unpruned grid for atomic number  80.
 Defaulting to unpruned grid for atomic number  80.
 Defaulting to unpruned grid for atomic number  80.
 Defaulting to unpruned grid for atomic number  80.
 Defaulting to unpruned grid for atomic number  80.
 Defaulting to unpruned grid for atomic number  80.
 Defaulting to unpruned grid for atomic number  80.
 Defaulting to unpruned grid for atomic number  80.
 Defaulting to unpruned grid for atomic number  80.
 Defaulting to unpruned grid for atomic number  80.
 Defaulting to unpruned grid for atomic number  80.
 Defaulting to unpruned grid for atomic number  80.
 Defaulting to unpruned grid for atomic number  80.
 Defaulting to unpruned grid for atomic number  80.
 Defaulting to unpruned grid for atomic number  80.
 Defaulting to unpruned grid for atomic number  80.
 SCF Done:  E(RPBE1PBE) =  -192.996772375     A.U. after    7 cycles
            NFock=  7  Conv=0.60D-08     -V/T= 3.1408
 PrsmSu:  requested number of processors reduced to:  13 ShMem   1 Linda.
   1 Symmetry operations used in ECPInt.
 ECPInt:  NShTT=     378 NPrTT=    1116 LenC2=     379 LenP2D=    1060.
 LDataN:  DoStor=T MaxTD1= 9 Len=  602
 Calling FoFJK, ICntrl=      2127 FMM=F ISym2X=0 I1Cent= 0 IOpClX= 0 NMat=1 NMatS=1 NMatT=0.
 Defaulting to unpruned grid for atomic number  80.
 Defaulting to unpruned grid for atomic number  80.
 Defaulting to unpruned grid for atomic number  80.
 Defaulting to unpruned grid for atomic number  80.
 Defaulting to unpruned grid for atomic number  80.
 Defaulting to unpruned grid for atomic number  80.
 Defaulting to unpruned grid for atomic number  80.
 Defaulting to unpruned grid for atomic number  80.
 Defaulting to unpruned grid for atomic number  80.
 Defaulting to unpruned grid for atomic number  80.
 Defaulting to unpruned grid for atomic number  80.
 Defaulting to unpruned grid for atomic number  80.
 Defaulting to unpruned grid for atomic number  80.
 Defaulting to unpruned grid for atomic number  80.
 Defaulting to unpruned grid for atomic number  80.
 Defaulting to unpruned grid for atomic number  80.
 Defaulting to unpruned grid for atomic number  80.
 Defaulting to unpruned grid for atomic number  80.
 Defaulting to unpruned grid for atomic number  80.
 Defaulting to unpruned grid for atomic number  80.
 Defaulting to unpruned grid for atomic number  80.
 Defaulting to unpruned grid for atomic number  80.
 Defaulting to unpruned grid for atomic number  80.
 Defaulting to unpruned grid for atomic number  80.
 ***** Axes restored to original set *****
 -------------------------------------------------------------------
 Center     Atomic                   Forces (Hartrees/Bohr)
 Number     Number              X              Y              Z
 -------------------------------------------------------------------
      1        6          -0.000023909   -0.000005339    0.000002661
      2       80           0.000031811    0.000036366   -0.000002430
      3        1           0.000005221   -0.000029433    0.000008821
      4        1           0.000005130   -0.000019274   -0.000013750
      5        1          -0.000018253    0.000017679    0.000004698
 -------------------------------------------------------------------
 Cartesian Forces:  Max     0.000036366 RMS     0.000018572

 GradGradGradGradGradGradGradGradGradGradGradGradGradGradGradGradGradGrad
 Berny optimization.
 Using GEDIIS/GDIIS optimizer.
 FormGI is forming the generalized inverse of G from B-inverse, IUseBI=4.
 Internal  Forces:  Max     0.000048205 RMS     0.000018327
 Search for a local minimum.
 Step number   5 out of a maximum of   24
 All quantities printed in internal units (Hartrees-Bohrs-Radians)
 Mixed Optimization -- En-DIIS/RFO-DIIS
 Swapping is turned off.
 Update second derivatives using D2CorX and points    1    2    3    4    5
 DE= -2.38D-06 DEPred=-2.15D-06 R= 1.10D+00
 TightC=F SS=  1.41D+00  RLast= 9.20D-03 DXNew= 8.4853D-01 2.7611D-02
 Trust test= 1.10D+00 RLast= 9.20D-03 DXMaxT set to 5.05D-01
 The second derivative matrix:
                          R1        R2        R3        R4        A1
           R1           0.10278
           R2           0.00174   0.35357
           R3           0.00242   0.00707   0.35355
           R4           0.00204   0.00794   0.00794   0.35540
           A1           0.00437  -0.00476  -0.00478  -0.00446   0.12249
           A2           0.00329  -0.00338  -0.00338  -0.00308  -0.03392
           A3           0.00663  -0.00491  -0.00491  -0.00474  -0.02938
           A4           0.00261   0.00250   0.00251   0.00233   0.03133
           A5          -0.00401   0.00284   0.00284   0.00265   0.02347
           A6          -0.00550   0.00382   0.00382   0.00368   0.02323
           D1           0.00523   0.00011   0.00004   0.00008   0.00052
           D2          -0.00503  -0.00209  -0.00203  -0.00225  -0.00052
           D3           0.00792   0.00070   0.00065   0.00083   0.00058
           D4           0.01294   0.00279   0.00268   0.00308   0.00110
                          A2        A3        A4        A5        A6
           A2           0.12913
           A3          -0.02657   0.13854
           A4           0.02858   0.02563   0.13401
           A5           0.02152   0.01768  -0.02040   0.14526
           A6           0.02119   0.01700  -0.02036  -0.01420   0.14643
           D1           0.00108   0.00244  -0.00011  -0.00167  -0.00193
           D2          -0.00093  -0.00192   0.00037   0.00116   0.00132
           D3           0.00125   0.00285  -0.00015  -0.00194  -0.00221
           D4           0.00218   0.00477  -0.00052  -0.00310  -0.00352
                          D1        D2        D3        D4
           D1           0.00552
           D2          -0.00297   0.00508
           D3           0.00351  -0.00325   0.00619
           D4           0.00648  -0.00603   0.00714   0.01546
 ITU=  1  1  1  1  0
     Eigenvalues ---    0.02431   0.05876   0.09955   0.10607   0.16000
     Eigenvalues ---    0.16296   0.34648   0.34649   0.36971
 En-DIIS/RFO-DIIS/Sim-DIIS IScMMF=       -3 using points:     5    4    3
 RFO step:  Lambda=-2.62135952D-08.
 DidBck=F Rises=F RFO-DIIS coefs:    1.11066   -0.12703    0.01637
 Iteration  1 RMS(Cart)=  0.00012973 RMS(Int)=  0.00000117
 Iteration  2 RMS(Cart)=  0.00000000 RMS(Int)=  0.00000117
 Variable       Old X    -DE/DX   Delta X   Delta X   Delta X     New X
                                 (Linear)    (Quad)   (Total)
    R1        4.03720   0.00005   0.00049  -0.00000   0.00049   4.03769
    R2        2.07285   0.00003   0.00000   0.00007   0.00007   2.07292
    R3        2.07286   0.00002   0.00001   0.00005   0.00005   2.07292
    R4        2.07287   0.00003   0.00001   0.00006   0.00007   2.07293
    A1        1.79683   0.00001  -0.00002   0.00006   0.00004   1.79687
    A2        1.79694   0.00000  -0.00001  -0.00003  -0.00004   1.79690
    A3        1.79704  -0.00001  -0.00001  -0.00008  -0.00009   1.79695
    A4        2.00947  -0.00002  -0.00001  -0.00009  -0.00010   2.00938
    A5        2.00921   0.00001   0.00001   0.00007   0.00009   2.00930
    A6        2.00922   0.00001   0.00002   0.00006   0.00008   2.00930
    D1        1.94118   0.00000  -0.00003   0.00002  -0.00001   1.94116
    D2       -1.94112  -0.00001   0.00002  -0.00005  -0.00003  -1.94116
    D3        1.94126  -0.00000  -0.00001  -0.00006  -0.00007   1.94119
    D4       -2.40080   0.00001  -0.00004  -0.00000  -0.00004  -2.40084
         Item               Value     Threshold  Converged?
 Maximum Force            0.000048     0.000450     YES
 RMS     Force            0.000018     0.000300     YES
 Maximum Displacement     0.000311     0.001800     YES
 RMS     Displacement     0.000130     0.001200     YES
 Predicted change in Energy=-1.592927D-08
 Optimization completed.
    -- Stationary point found.
                           ----------------------------
                           !   Optimized Parameters   !
                           ! (Angstroms and Degrees)  !
 --------------------------                            --------------------------
 ! Name  Definition              Value          Derivative Info.                !
 --------------------------------------------------------------------------------
 ! R1    R(1,2)                  2.1364         -DE/DX =    0.0                 !
 ! R2    R(1,3)                  1.0969         -DE/DX =    0.0                 !
 ! R3    R(1,4)                  1.0969         -DE/DX =    0.0                 !
 ! R4    R(1,5)                  1.0969         -DE/DX =    0.0                 !
 ! A1    A(2,1,3)              102.9509         -DE/DX =    0.0                 !
 ! A2    A(2,1,4)              102.9573         -DE/DX =    0.0                 !
 ! A3    A(2,1,5)              102.9629         -DE/DX =    0.0                 !
 ! A4    A(3,1,4)              115.1343         -DE/DX =    0.0                 !
 ! A5    A(3,1,5)              115.1195         -DE/DX =    0.0                 !
 ! A6    A(4,1,5)              115.1199         -DE/DX =    0.0                 !
 ! D1    D(2,1,4,3)            111.2212         -DE/DX =    0.0                 !
 ! D2    D(2,1,5,3)           -111.2182         -DE/DX =    0.0                 !
 ! D3    D(2,1,5,4)            111.226          -DE/DX =    0.0                 !
 ! D4    D(3,1,5,4)           -137.5558         -DE/DX =    0.0                 !
 --------------------------------------------------------------------------------
 GradGradGradGradGradGradGradGradGradGradGradGradGradGradGradGradGradGrad

                          Input orientation:                          
 ---------------------------------------------------------------------
 Center     Atomic      Atomic             Coordinates (Angstroms)
 Number     Number       Type             X           Y           Z
 ---------------------------------------------------------------------
      1          6           0       -4.938651    1.521561   -0.000848
      2         80           0       -3.427041    3.031267    0.000944
      3          1           0       -4.612314    0.845982    0.799338
      4          1           0       -4.872732    1.108710   -1.014961
      5          1           0       -5.853039    2.088648    0.212525
 ---------------------------------------------------------------------
                    Distance matrix (angstroms):
                    1          2          3          4          5
     1  C    0.000000
     2  Hg   2.136394   0.000000
     3  H    1.096906   2.611087   0.000000
     4  H    1.096912   2.611189   1.851628   0.000000
     5  H    1.096914   2.611276   1.851477   1.851487   0.000000
 Stoichiometry    CH3Hg(1+)
 Framework group  C1[X(CH3Hg)]
 Deg. of freedom     9
 Full point group                 C1      NOp   1
 Largest Abelian subgroup         C1      NOp   1
 Largest concise Abelian subgroup C1      NOp   1
                         Standard orientation:                         
 ---------------------------------------------------------------------
 Center     Atomic      Atomic             Coordinates (Angstroms)
 Number     Number       Type             X           Y           Z
 ---------------------------------------------------------------------
      1          6           0       -1.912064   -0.000000    0.000021
      2         80           0        0.224330   -0.000001   -0.000001
      3          1           0       -2.157891    0.910033    0.560922
      4          1           0       -2.158013   -0.940825    0.507539
      5          1           0       -2.158135    0.030840   -1.068491
 ---------------------------------------------------------------------
 Rotational constants (GHZ):         146.2750504           7.3576608           7.3576219

 **********************************************************************

            Population analysis using the SCF density.

 **********************************************************************

 Orbital symmetries:
       Occupied  (A) (A) (A) (A) (A) (A) (A) (A) (A) (A) (A) (A)
                 (A) (A)
       Virtual   (A) (A) (A) (A) (A) (A) (A) (A) (A) (A) (A) (A)
                 (A) (A) (A) (A) (A) (A) (A) (A) (A) (A) (A) (A)
                 (A) (A) (A) (A) (A) (A) (A) (A) (A) (A) (A) (A)
                 (A) (A) (A) (A) (A) (A) (A) (A) (A) (A) (A)
 The electronic state is 1-A.
 Alpha  occ. eigenvalues --  -10.51210  -4.76427  -2.89906  -2.88751  -2.88751
 Alpha  occ. eigenvalues --   -0.94700  -0.73310  -0.73309  -0.73202  -0.71002
 Alpha  occ. eigenvalues --   -0.71002  -0.64834  -0.64832  -0.56138
 Alpha virt. eigenvalues --   -0.34145  -0.19799  -0.19799  -0.12166  -0.05470
 Alpha virt. eigenvalues --   -0.04431  -0.04430   0.01226   0.21742   0.21744
 Alpha virt. eigenvalues --    0.26505   0.26505   0.27832   0.35969   0.36684
 Alpha virt. eigenvalues --    0.36687   0.47244   0.47245   0.48399   0.51193
 Alpha virt. eigenvalues --    0.60603   0.60603   0.88006   1.02556   1.02558
 Alpha virt. eigenvalues --    1.27609   1.28069   1.31163   1.31164   1.32428
 Alpha virt. eigenvalues --    1.32428   1.33183   1.33194   1.51160   1.51163
 Alpha virt. eigenvalues --    1.67159   1.81097   1.82323   1.82329   1.93503
 Alpha virt. eigenvalues --    2.16707   2.16718   2.56874   2.66547   2.66558
 Alpha virt. eigenvalues --   32.91636 121.16940
          Condensed to atoms (all electrons):
               1          2          3          4          5
     1  C    4.819427   0.290614   0.386485   0.386487   0.386486
     2  Hg   0.290614  19.079887  -0.021020  -0.021015  -0.021010
     3  H    0.386485  -0.021020   0.460316  -0.009048  -0.009053
     4  H    0.386487  -0.021015  -0.009048   0.460306  -0.009053
     5  H    0.386486  -0.021010  -0.009053  -0.009053   0.460317
 Mulliken charges:
               1
     1  C   -0.269499
     2  Hg   0.692544
     3  H    0.192319
     4  H    0.192323
     5  H    0.192312
 Sum of Mulliken charges =   1.00000
 Mulliken charges with hydrogens summed into heavy atoms:
               1
     1  C    0.307456
     2  Hg   0.692544
 Electronic spatial extent (au):  <R**2>=            196.3495
 Charge=              1.0000 electrons
 Dipole moment (field-independent basis, Debye):
    X=             -1.5901    Y=              0.0001    Z=              0.0000  Tot=              1.5901
 Quadrupole moment (field-independent basis, Debye-Ang):
   XX=            -17.7242   YY=            -26.3014   ZZ=            -26.3021
   XY=              0.0001   XZ=              0.0004   YZ=             -0.0000
 Traceless Quadrupole moment (field-independent basis, Debye-Ang):
   XX=              5.7183   YY=             -2.8588   ZZ=             -2.8595
   XY=              0.0001   XZ=              0.0004   YZ=             -0.0000
 Octapole moment (field-independent basis, Debye-Ang**2):
  XXX=             12.2816  YYY=             -0.1070  ZZZ=             -1.2347  XYY=              7.2172
  XXY=             -0.0004  XXZ=             -0.0013  XZZ=              7.2184  YZZ=              0.1071
  YYZ=              1.2348  XYZ=              0.0001
 Hexadecapole moment (field-independent basis, Debye-Ang**3):
 XXXX=           -152.4370 YYYY=            -30.4651 ZZZZ=            -30.4657 XXXY=              0.0016
 XXXZ=              0.0043 YYYX=              0.2399 YYYZ=              0.0001 ZZZX=              2.7664
 ZZZY=             -0.0000 XXYY=            -31.1149 XXZZ=            -31.1167 YYZZ=            -10.1552
 XXYZ=             -0.0005 YYXZ=             -2.7661 ZZXY=             -0.2399
 N-N= 5.142411734001D+01 E-N=-5.074164173219D+02  KE= 9.015229749451D+01
 1\1\GINC-GRANADO-COMPUTE-18\FOpt\RPBE1PBE\def2SVP\C1H3Hg1(1+)\ROOT\01-
 Oct-2022\0\\#Opt Freq PBE1PBE/def2svp\\Optimization MeHg-adfd-def2svp-
[...]
 Defaulting to unpruned grid for atomic number  80.
 Defaulting to u Defaulting to unpruned grid for atomic number  80.
 Defaulting to unpruned grid for ato Defaulting to u Defaulting to unpruned grid for atomic number  80.
 Defaulting to unpruned grid for atomic number  80.
 Defaulting to unpruned grid for ato Defaulting to unpruned grid for atomic number  80.
 Defaulting to unpruned grid for atomic number  80.
 Defaulting to unpruned grid for atomic number  80.
 Defaulting to u Full mass-weighted force constant matrix:
 Low frequencies ---  -16.5794   -5.7035   -0.0003    0.0003    0.0006    4.1193
 Low frequencies ---  431.7449  831.9751  832.1084
 Diagonal vibrational polarizability:
        6.9611054       0.9508236       0.9512405
 Har Diagonal vibrational polarizability:
        6.9611054       0.9508236       0.9512405
 Harmonic fr Diagonal vibrational polarizability:
        6.9611054       0.9508236       0.9512405
 Harmonic frequencies (cm**-1), IR intensities (KM/Mole), Raman scattering
 activities (A**4/AMU), depolarization ratios for plane and unpolarized
 incident light, reduced masses (AMU), force constants (mDyne/A),
 and normal coordinates:
                      1                      2                      3
                      A                      A                      A
 Frequencies --    431.7449               831.9751               832.1084
 Red. masses --      5.1436                 1.0924                 1.0924
 Frc consts  --      0.5649                 0.4455                 0.4457
 IR Inten    --     37.6930                18.1561                18.1504
  Atom  AN      X      Y      Z        X      Y      Z        X      Y      Z
     1   6     0.59   0.00   0.00    -0.00  -0.01   0.09     0.00  -0.09  -0.01
     2  80    -0.04  -0.00   0.00     0.00   0.00  -0.00    -0.00   0.00   0.00
     3   1     0.47  -0.02  -0.01    -0.36   0.04  -0.15     0.70   0.11  -0.02
     4   1     0.47   0.02  -0.01    -0.43  -0.02  -0.15    -0.67   0.11   0.04
     5   1     0.47  -0.00   0.03     0.79   0.01  -0.09    -0.04   0.17   0.01
                      4                      5                      6
                      A                      A                      A
 Frequencies --   1188.9200              1394.1331              1394.2323
 Red. masses --      1.1452                 1.0747                 1.0747
 Frc consts  --      0.9537                 1.2307                 1.2308
 IR Inten    --     76.1482                10.4690                10.4686
  Atom  AN      X      Y      Z        X      Y      Z        X      Y      Z
     1   6    -0.11   0.00   0.00     0.00   0.00  -0.08    -0.00  -0.08  -0.00
     2  80    -0.00  -0.00  -0.00    -0.00   0.00  -0.00     0.00  -0.00  -0.00
     3   1     0.56   0.12   0.08    -0.11  -0.40   0.53    -0.19   0.12  -0.39
     4   1     0.56  -0.13   0.07    -0.11   0.37   0.57     0.19   0.09   0.38
     5   1     0.56   0.00  -0.14     0.22   0.01  -0.12    -0.00   0.77   0.02
                      7                      8                      9
                      A                      A                      A
 Frequencies --   3083.8888              3265.7260              3265.7988
 Red. masses --      1.0183                 1.1161                 1.1161
 Frc consts  --      5.7057                 7.0129                 7.0133
 IR Inten    --     24.6009                39.7909                39.8107
  Atom  AN      X      Y      Z        X      Y      Z        X      Y      Z
     1   6    -0.03  -0.00   0.00    -0.00   0.03  -0.09    -0.00  -0.09  -0.03
     2  80     0.00   0.00  -0.00    -0.00  -0.00   0.00     0.00   0.00   0.00
     3   1     0.12  -0.48  -0.30    -0.04   0.16   0.09    -0.17   0.65   0.41
     4   1     0.12   0.50  -0.27    -0.13  -0.51   0.27     0.12   0.48  -0.26
     5   1     0.12  -0.02   0.56     0.17  -0.02   0.76     0.05  -0.01   0.22

 -------------------
 - Thermochemistry -
 -------------------
 Temperature   298.150 Kelvin.  Pressure   1.00000 Atm.
 Atom     1 has atomic number  6 and mass  12.00000
 Atom     2 has atomic number 80 and mass 201.97060
 Atom     3 has atomic number  1 and mass   1.00783
 Atom     4 has atomic number  1 and mass   1.00783
 Atom     5 has atomic number  1 and mass   1.00783
 Molecular mass:   216.99408 amu.
 Principal axes and moments of inertia in atomic units:
                           1         2         3
     Eigenvalues --    12.33800 245.28736 245.28866
           X            1.00000   0.00000   0.00000
           Y           -0.00000   1.00000   0.00000
           Z           -0.00000  -0.00000   1.00000
 This molecule is an asymmetric top.
 Rotational symmetry number  1.
 Rotational temperatures (Kelvin)      7.02010     0.35311     0.35311
 Rotational constants (GHZ):         146.27505     7.35766     7.35762
 Zero-point vibrational energy      93838.2 (Joules/Mol)
                                   22.42788 (Kcal/Mol)
 Warning -- explicit consideration of   1 degrees of freedom as
           vibrations may cause significant error
 Vibrational temperatures:    621.18  1197.03  1197.22  1710.59  2005.85
          (Kelvin)           2005.99  4437.03  4698.65  4698.76
 
 Zero-point correction=                           0.035741 (Hartree/Particle)
 Thermal correction to Energy=                    0.039025
 Thermal correction to Enthalpy=                  0.039970
 Thermal correction to Gibbs Free Energy=         0.009295
 Sum of electronic and zero-point Energies=           -192.961031
 Sum of electronic and thermal Energies=              -192.957747
 Sum of electronic and thermal Enthalpies=            -192.956803
 Sum of electronic and thermal Free Energies=         -192.987477
 
                     E (Thermal)             CV                S
                      KCal/Mol        Cal/Mol-Kelvin    Cal/Mol-Kelvin
 Total                   24.489              8.990             64.560
 Electronic               0.000              0.000              0.000
 Translational            0.889              2.981             42.027
 Rotational               0.889              2.981             21.234
 Vibrational             22.711              3.028              1.299
 Vibration     1          0.793              1.401              0.853
                       Q            Log10(Q)             Ln(Q)
 Total Bot       0.530298D-04         -4.275480         -9.844656
 Total V=0       0.145971D+13         12.164268         28.009262
 Vib (Bot)       0.432763D-16        -16.363750        -37.678927
 Vib (Bot)    1  0.403018D+00         -0.394675         -0.908774
 Vib (V=0)       0.119124D+01          0.075998          0.174992
 Vib (V=0)    1  0.114220D+01          0.057743          0.132958
 Electronic      0.100000D+01          0.000000          0.000000
 Translational   0.125639D+09          8.099126         18.648926
 Rotational      0.975314D+04          3.989144          9.185344
 ***** Axes restored to original set *****
 -------------------------------------------------------------------
 Center     Atomic                   Forces (Hartrees/Bohr)
 Number     Number              X              Y              Z
 -------------------------------------------------------------------
      1        6          -0.000023965   -0.000005383    0.000002658
      2       80           0.000031821    0.000036375   -0.000002430
      3        1           0.000005213   -0.000029397    0.000008786
      4        1           0.000005133   -0.000019249   -0.000013701
      5        1          -0.000018200    0.000017654    0.000004687
 ----------
 GradGradGradGradGradGradGradGradGradGradGradGradGradGradGradGradGradGrad
 Berny optimizati
 Gr Internal  Forces:  Max     0.000048217 RMS     0.000018314
 Search for a local minimum.
 St Int
 GradGradGradGradGradGradGradGradGradGradGradGradGradGradGradGradGradGrad
 Berny optimization.
 Internal  Forces:  Max     0.000048217 RMS     0.000018314
 Search for a local minimum.
 Step number   1 out of a maximum of    2
 All quantities printed in internal units (Hartrees-Bohrs-Radians)
 Second derivative matrix not updated -- analytic derivatives used.
 The second derivative matrix:
                          R1        R2        R3        R4        A1
           R1           0.10335
           R2           0.00089   0.36251
           R3           0.00089  -0.00190   0.36250
           R4           0.00089  -0.00190  -0.00190   0.36250
           A1           0.00262  -0.00127   0.00027  -0.00008   0.01465
           A2           0.00417   0.00064  -0.00137  -0.00100  -0.00486
           A3           0.00849  -0.00063  -0.00036  -0.00248  -0.01193
           A4           0.00034   0.00312   0.00296  -0.00622  -0.00656
           A5          -0.00537   0.00427  -0.00627   0.00420  -0.00753
           A6          -0.00603  -0.00648   0.00437   0.00460   0.01564
           D1           0.00572   0.00022   0.00077  -0.00336   0.01166
           D2          -0.00583   0.00004   0.00259  -0.00023  -0.00706
           D3           0.00738  -0.00240   0.00004  -0.00068  -0.00612
           D4           0.01321  -0.00244  -0.00255  -0.00045   0.00094
                          A2        A3        A4        A5        A6
           A2           0.02750
           A3          -0.02046   0.05537
           A4          -0.00115   0.02123   0.04598
           A5           0.01640  -0.02203  -0.02596   0.06318
           A6          -0.01683  -0.01583  -0.02981  -0.02771   0.06984
           D1           0.01004  -0.01716   0.01127  -0.01033  -0.00423
           D2           0.01084  -0.00921   0.00633  -0.00514   0.00274
           D3           0.01324   0.00176  -0.00158  -0.00550   0.00065
           D4           0.00240   0.01097  -0.00791  -0.00036  -0.00209
                          D1        D2        D3        D4
           D1           0.02460
           D2           0.00078   0.01602
           D3               Eigenvalues ---    0.02484   0.03909   0.06587   0.09935   0.10592
     Eigenvalues ---    0.11     Eigenvalues ---    0.02484   0.03909   0 Iteration  1 RMS(Cart)=  0.00014629 RMS(Int)=  0.00000001
 Iteration  2 RMS(Cart)=  0.00000001 RMS(Int)=  0.00000000
 Variable       Ol Iteration  2 RMS(Cart)=  0.00000001 RMS(Int)=  0.00000000
 Variable       Old X    -DE/DX   Delta X   Delta X   De Iteration  2 RMS(Cart)=  0.00000001 RMS(Int)=  0.00000000
 Variable       Old X    -DE/DX   Delta X   Delta X   Delta X     New X
                                 (Linear)    (Quad)   (Total)
    R1        4.03720   0.00005   0.00000   0.00049   0.00049   4.03769
    R2        2.07285   0.00003   0.00000   0.00007   0.00007   2.07292
    R3        2.07286   0.00002   0.00000   0.00006   0.00006   2.07292
    R4        2.07287   0.00003   0.00000   0.00006   0.00006   2.07293
    A1        1.79683   0.00001   0.00000   0.00008   0.00008   1.79691
    A2        1.79694   0.00000   0.00000  -0.00004  -0.00004   1.79690
    A3        1.79704  -0.00001   0.00000  -0.00012  -0.00012   1.79692
    A4        2.00947  -0.00002   0.00000  -0.00016  -0.00016   2.00932
    A5        2.00921   0.00001   0.00000   0.00011   0.00011   2.00933
    A6        2.00922   0.00001   0.00000   0.00010   0.00010   2.00932
    D1        1.94118   0.00000   0.00000   0.00000   0.00000   1.94118
    D2       -1.94112  -0.00001   0.00000  -0.00007  -0.00007  -1.94119
    D3        1.94126  -0.00000   0.00000  -0.00008  -0.00008   1.94118
    D4       -2.40080   0.00001   0.00000  -0.00001  -0.00001  -2.40081
         Item               Value     Threshold  Converged?
 Maximum Force            0.000048     0.000450     YES
 RMS     Force            0.000018     0.000300     YES
 Maximum Displacement     0.000340     0.001800     YES
 RMS     Displacement     0.000146     0.001200     YES
 Predicted change in Energy=-1.743721D-08
 Optimization completed.
    -- Stationary point found.
                           ----------------------------
                           !   Optimized Parameters   !
                           ! (Angstroms and Degrees)  !
 --------------------------                            --------------------------
 ! Name  Definition              Value          Derivative Info.                !
 --------------------------------------------------------------------------------
 ! R1    R(1,2)                  2.1364         -DE/DX =    0.0                 !
 ! R2    R(1,3)                  1.0969         -DE/DX =    0.0                 !
 ! R3    R(1,4)                  1.0969         -DE/DX =    0.0                 !
 ! R4    R(1,5)                  1.0969         -DE/DX =    0.0                 !
 ! A1    A(2,1,3)              102.9509         -DE/DX =    0.0                 !
 ! A2    A(2,1,4)              102.9573         -DE/DX =    0.0                 !
 ! A3    A(2,1,5)              102.9629         -DE/DX =    0.0                 !
 ! A4    A(3,1,4)              115.1343         -DE/DX =    0.0                 !
 ! A5    A(3,1,5)              115.1195         -DE/DX =    0.0                 !
 ! A6    A(4,1,5)              115.1199         -DE/DX =    0.0                 !
 ! D1    D(2,1,4,3)            111.2212         -DE/DX =    0.0                 !
 ! D2    D(2,1,5,3)           -111.2182         -DE/DX =    0.0                 !
 ! D3    D(2,1,5,4)            111.226          -DE/DX =    0.0                 !
 ! D4    D(3,1,5,4)           -137.5558         -DE/DX =    0.0                 !
 --------------------------------------------------------------------------------
 GradGradGradGradGradGradGradGradGradGradGradGradGradGradGradGradGradGrad


 ----------------------------------------------------------------------

 Electric dipole moment (input orientation):
 (Debye = 10**-18 statcoulomb cm , SI units = C m)
                  (au)            (Debye)         (10**-30 SI)
   Tot        0.625579D+00      0.159006D+01      0.530388D+01
   x         -0.442627D+00     -0.112505D+01     -0.375275D+01
   y         -0.442075D+00     -0.112364D+01     -0.374807D+01
   z         -0.503346D-03     -0.127938D-02     -0.426755D-02

 Dipole polarizability, Alpha (input orientation).
 (esu units = cm**3 , SI units = C**2 m**2 J**-1)
 Alpha(0;0):
               (au)            (10**-24 esu)      (10**-40 SI)
   iso        0.358308D+02      0.530958D+01      0.590771D+01
   aniso      0.264677D+02      0.392211D+01      0.436394D+01
   xx         0.402595D+02      0.596584D+01      0.663789D+01
   yx         0.132338D+02      0.196105D+01      0.218196D+01
   yy         0.402248D+02      0.596070D+01      0.663217D+01
   zx         0.155790D-01      0.230857D-02      0.256863D-02
   zy         0.158703D-01      0.235173D-02      0.261665D-02
   zz         0.270082D+02      0.400220D+01      0.445305D+01

 ----------------------------------------------------------------------

 Dipole orientation:
     6         -6.09672017          6.10727486          4.57143407
    80         -6.09660459          6.10735418          0.53423443
     1         -4.08025979          6.22864003          5.03605152
     1         -7.00010338          4.30042820          5.03615971
     1         -7.20987133          7.79293741          5.03642228

 Electric dipole moment (dipole orientation):
 (Debye = 10**-18 statcoulomb cm , SI units = C m)
                  (au)            (Debye)         (10**-30 SI)
   Tot        0.625579D+00      0.159006D+01      0.530388D+01
   x          0.000000D+00      0.000000D+00      0.000000D+00
   y          0.000000D+00      0.000000D+00      0.000000D+00
   z          0.625579D+00      0.159006D+01      0.530388D+01

 Dipole polarizability, Alpha (dipole orientation).
 (esu units = cm**3 , SI units = C**2 m**2 J**-1)
 Alpha(0;0):
               (au)            (10**-24 esu)      (10**-40 SI)
   iso        0.358308D+02      0.530958D+01      0.590771D+01
   aniso      0.264677D+02      0.392211D+01      0.436394D+01
   xx         0.270080D+02      0.400218D+01      0.445302D+01
   yx        -0.754100D-04     -0.111746D-04     -0.124334D-04
   yy         0.270085D+02      0.400224D+01      0.445310D+01
   zx        -0.124864D-02     -0.185030D-03     -0.205873D-03
   zy        -0.823160D-04     -0.121980D-04     -0.135721D-04
   zz         0.534760D+02      0.792432D+01      0.881700D+01

 ----------------------------------------------------------------------
 1\1\GINC-GRANADO-COMPUTE-18\Freq\RPBE1PBE\def2SVP\C1H3Hg1(1+)\ROOT\01-
 Oct-2022\0\\#N Geom=AllCheck Guess=TCheck SCRF=Check GenChk RPBE1PBE/d
 ef2SVP Freq\\Optimization MeHg-adfd-def2svp-solvation\\1,1\C,-4.938651
 4064,1.5215613644,-0.0008478435\Hg,-3.4270408789,3.0312666121,0.000944
 0534\H,-4.61231382,0.8459820206,0.7993384188\H,-4.8727317219,1.1087100
 216,-1.0149609519\H,-5.8530391727,2.0886479813,0.2125253231\\Version=E
 M64L-G16RevA.03\State=1-A\HF=-192.9967724\RMSD=6.177e-09\RMSF=1.857e-0
 5\ZeroPoint=0.0357411\Thermal=0.0390254\Dipole=-0.442627,-0.4420747,-0
 .0005033\DipoleDeriv=0.3484784,0.6093367,0.000716,0.6093979,0.3469892,
 0.0007329,0.0007006,0.0007191,-0.2616827,0.5584295,-0.2713979,-0.00032
 48,-0.2713843,0.5591482,-0.0003224,-0.0003315,-0.000329,0.8301687,0.00
 42491,-0.1718585,0.0472207,-0.0501451,0.0548057,0.0095459,-0.0499797,-
 0.0876679,0.1470399,0.0082727,-0.1310245,-0.047753,-0.0728535,0.032500
 8,-0.0248153,0.0755249,0.0982363,0.1653937,0.0805703,-0.0350559,0.0001
 412,-0.215015,0.0065562,0.014859,-0.0259144,-0.0109585,0.1190805\Polar
 =40.2594935,13.2337956,40.2247983,0.015579,0.0158703,27.0082062\Quadru
 pole=1.0670909,1.0583798,-2.1254706,3.1887029,0.0038457,0.0037205\PG=C
 01 [X(C1H3Hg1)]\NImag=0\\0.39913447,-0.19932201,0.39954283,-0.00021160
 ,-0.00024421,0.59874838,-0.03724294,-0.02332424,-0.00002735,0.05679939
 ,-0.02332562,-0.03718324,-0.00002733,0.04661185,0.05667124,-0.00002771
 ,-0.00002670,-0.01388696,0.00005290,0.00004929,0.01013854,-0.06672289,
 0.06336104,-0.06302664,-0.00311490,-0.01275323,0.00785666,0.06763137,0
 .06749104,-0.15736699,0.13871561,-0.00261692,-0.01008280,0.00580376,-0
 .06293330,0.15921199,-0.06632723,0.13542061,-0.21228873,-0.00023508,-0
 .00229156,0.00143038,0.07041614,-0.14356382,0.21328473,-0.04168478,0.0
 1581022,0.01344676,-0.00542307,-0.00960175,-0.00929943,0.00250691,-0.0
 0300774,-0.00709836,0.03989418,0.01778420,-0.08473664,-0.10872246,-0.0
 0475473,-0.00874460,-0.00804103,-0.00054713,0.01145739,0.01702772,-0.0
 1135269,0.08336143,0.01763223,-0.10454905,-0.30995161,0.00096043,0.002
 20267,0.00240928,0.00277396,-0.01008056,-0.00995239,-0.01876910,0.1108
 1195,0.31685795,-0.25348385,0.14347499,0.04981883,-0.01101849,-0.00093
 125,0.00141758,-0.00030049,0.00106692,0.00324453,0.00470675,-0.0011296
 5,-0.00259753,0.26009607,0.13737238,-0.12025596,-0.02972162,-0.0159159
 5,-0.00066060,0.00221468,0.01287263,-0.00321959,-0.00659295,0.00815197
 ,-0.00133757,0.00161499,-0.14248102,0.12547372,0.04893431,-0.03060065,
 -0.06262107,-0.00075091,0.00006693,-0.00009123,-0.01802013,0.00912500,
 0.00752602,0.02172013,-0.01107618,0.00063677,-0.05188340,0.03248490,0.
 05454951\\0.00002397,0.00000538,-0.00000266,-0.00003182,-0.00003637,0.
 00000243,-0.00000521,0.00002940,-0.00000879,-0.00000513,0.00001925,0.0
 0001370,0.00001820,-0.00001765,-0.00000469\\\@


 HE THAT RISETH LATE MUST TROT ALL DAY.

                  -- BENJAMIN FRANKLIN
 Job cpu time:       0 days  0 hours 19 minutes 33.8 seconds.
 Elapsed time:       0 days  0 hours 12 minutes 58.8 seconds.
 File lengths (MBytes):  RWF=      6 Int=      0 D2E=      0 Chk=      2 Scr=      1
 Normal termination of Gaussian 16 at Sat Oct  1 06:22:54 2022.
2.
e.

                               -- source unknown
 Job cpu time:       0 days  0 hours 19 minutes 44.8 seconds.
 Elapsed time:       0 days  0 hours 13 minutes  9.8 seconds.
 File lengths (MBytes):  RWF=      6 Int=      0 D2E=      0 Chk=      2 Scr=      1
 Normal termination of Gaussian 16 at Sat Oct  1 06:22:49 2022.
