 Entering Gaussian System, Link 0=g16
 Input=input.gjf
 Output=input.log
 Initial command:
 /opt/ohpc/pub/apps/gaussian/G16x86_64_legacy_CPUs_linux_binary/g16/l1.exe "/tmp/Gau-14867.inp" -scrdir="/tmp/"
 Entering Link 1 = /opt/ohpc/pub/apps/gaussian/G16x86_64_legacy_CPUs_linux_binary/g16/l1.exe PID=     14963.
  
 Copyright (c) 1988,1990,1992,1993,1995,1998,2003,2009,2016,
            Gaussian, Inc.  All Rights Reserved.
  
 This is part of the Gaussian(R) 16 program.  It is based on
 the Gaussian(R) 09 system (copyright 2009, Gaussian, Inc.),
 the Gaussian(R) 03 system (copyright 2003, Gaussian, Inc.),
 the Gaussian(R) 98 system (copyright 1998, Gaussian, Inc.),
 the Gaussian(R) 94 system (copyright 1995, Gaussian, Inc.),
 the Gaussian 92(TM) system (copyright 1992, Gaussian, Inc.),
 the Gaussian 90(TM) system (copyright 1990, Gaussian, Inc.),
 the Gaussian 88(TM) system (copyright 1988, Gaussian, Inc.),
 the Gaussian 86(TM) system (copyright 1986, Carnegie Mellon
 University), and the Gaussian 82(TM) system (copyright 1983,
 Carnegie Mellon University). Gaussian is a federally registered
 trademark of Gaussian, Inc.
  
 This software contains proprietary and confidential information,
 including trade secrets, belonging to Gaussian, Inc.
  
 This software is provided under written license and may be
 used, copied, transmitted, or stored only in accord with that
 written license.
  
 The following legend is applicable only to US Government
 contracts under FAR:
  
                    RESTRICTED RIGHTS LEGEND
  
 Use, reproduction and disclosure by the US Government is
 subject to restrictions as set forth in subparagraphs (a)
 and (c) of the Commercial Computer Software - Restricted
 Rights clause in FAR 52.227-19.
  
 Gaussian, Inc.
 340 Quinnipiac St., Bldg. 40, Wallingford CT 06492
  
  
 ---------------------------------------------------------------
 Warning -- This program may not be used in any manner that
 competes with the business of Gaussian, Inc. or will provide
 assistance to any competitor of Gaussian, Inc.  The licensee
 of this program is prohibited from giving any competitor of
 Gaussian, Inc. access to this program.  By using this program,
 the user acknowledges that Gaussian, Inc. is engaged in the
 business of creating and licensing software in the field of
 computational chemistry and represents and warrants to the
 licensee that it is not a competitor of Gaussian, Inc. and that
 it will not use this program in any manner prohibited above.
 ---------------------------------------------------------------
  

 Cite this work as:
 Gaussian 16, Revision A.03,
 M. J. Frisch, G. W. Trucks, H. B. Schlegel, G. E. Scuseria, 
 M. A. Robb, J. R. Cheeseman, G. Scalmani, V. Barone, 
 G. A. Petersson, H. Nakatsuji, X. Li, M. Caricato, A. V. Marenich, 
 J. Bloino, B. G. Janesko, R. Gomperts, B. Mennucci, H. P. Hratchian, 
 J. V. Ortiz, A. F. Izmaylov, J. L. Sonnenberg, D. Williams-Young, 
 F. Ding, F. Lipparini, F. Egidi, J. Goings, B. Peng, A. Petrone, 
 T. Henderson, D. Ranasinghe, V. G. Zakrzewski, J. Gao, N. Rega, 
 G. Zheng, W. Liang, M. Hada, M. Ehara, K. Toyota, R. Fukuda, 
 J. Hasegawa, M. Ishida, T. Nakajima, Y. Honda, O. Kitao, H. Nakai, 
 T. Vreven, K. Throssell, J. A. Montgomery, Jr., J. E. Peralta, 
 F. Ogliaro, M. J. Bearpark, J. J. Heyd, E. N. Brothers, K. N. Kudin, 
 V. N. Staroverov, T. A. Keith, R. Kobayashi, J. Normand, 
 K. Raghavachari, A. P. Rendell, J. C. Burant, S. S. Iyengar, 
 J. Tomasi, M. Cossi, J. M. Millam, M. Klene, C. Adamo, R. Cammi, 
 J. W. Ochterski, R. L. Martin, K. Morokuma, O. Farkas, 
 J. B. Foresman, and D. J. Fox, Gaussian, Inc., Wallingford CT, 2016.
 
 ******************************************
 Gaussian 16:  EM64L-G16RevA.03 25-Dec-2016
                11-Sep-2023 
 ******************************************
 %NProcShared=24
 Will use up to   24 processors via shared memory.
 %Chk=sh_gas_apfd_def2svp.chk
 ------------------------------
 #Opt Freq PBE1PBE/def2svp Test
 ------------------------------
 1/18=20,19=15,26=3,38=1/1,3;
 2/9=110,12=2,17=6,18=5,40=1/2;
 3/5=43,7=101,11=2,25=1,30=1,71=1,74=-13/1,2,3;
 4//1;
 5/5=2,38=5/2;
 6/7=2,8=2,9=2,10=2,28=1/1;
 7//1,2,3,16;
 1/18=20,19=15,26=3/3(2);
 2/9=110/2;
 99//99;
 2/9=110/2;
 3/5=43,7=101,11=2,25=1,30=1,71=1,74=-13/1,2,3;
 4/5=5,16=3,69=1/1;
 5/5=2,38=5/2;
 7//1,2,3,16;
 1/18=20,19=15,26=3/3(-5);
 2/9=110/2;
 6/7=2,8=2,9=2,10=2,19=2,28=1/1;
 99/9=1/99;
 -------------------------
 Optimization sh-solvation
 -------------------------
 Symbolic Z-matrix:
 Charge = -1 Multiplicity = 1
 S                    -3.48465   0.30495   0. 
 H                    -2.109     0.30495   0. 
 

 GradGradGradGradGradGradGradGradGradGradGradGradGradGradGradGradGradGrad
 Berny optimization.
 Initialization pass.
                           ----------------------------
                           !    Initial Parameters    !
                           ! (Angstroms and Degrees)  !
 --------------------------                            --------------------------
 ! Name  Definition              Value          Derivative Info.                !
 --------------------------------------------------------------------------------
 ! R1    R(1,2)                  1.3757         estimate D2E/DX2                !
 --------------------------------------------------------------------------------
 Trust Radius=3.00D-01 FncErr=1.00D-07 GrdErr=1.00D-06 EigMax=2.50D+02 EigMin=1.00D-04
 Number of steps in this run=     20 maximum allowed number of steps=    100.
 GradGradGradGradGradGradGradGradGradGradGradGradGradGradGradGradGradGrad

                          Input orientation:                          
 ---------------------------------------------------------------------
 Center     Atomic      Atomic             Coordinates (Angstroms)
 Number     Number       Type             X           Y           Z
 ---------------------------------------------------------------------
      1         16           0       -3.484650    0.304950    0.000000
      2          1           0       -2.109000    0.304950    0.000000
 ---------------------------------------------------------------------
 Stoichiometry    HS(1-)
 Framework group  C*V[C*(HS)]
 Deg. of freedom     1
 Full point group                 C*V     NOp   4
 Largest Abelian subgroup         C2V     NOp   4
 Largest concise Abelian subgroup C1      NOp   1
                         Standard orientation:                         
 ---------------------------------------------------------------------
 Center     Atomic      Atomic             Coordinates (Angstroms)
 Number     Number       Type             X           Y           Z
 ---------------------------------------------------------------------
      1         16           0        0.000000    0.000000    0.080921
      2          1           0        0.000000    0.000000   -1.294729
 ---------------------------------------------------------------------
 Rotational constants (GHZ):           0.0000000         273.3346343         273.3346343
 Standard basis: def2SVP (5D, 7F)
 There are    13 symmetry adapted cartesian basis functions of A1  symmetry.
 There are     1 symmetry adapted cartesian basis functions of A2  symmetry.
 There are     5 symmetry adapted cartesian basis functions of B1  symmetry.
 There are     5 symmetry adapted cartesian basis functions of B2  symmetry.
 There are    12 symmetry adapted basis functions of A1  symmetry.
 There are     1 symmetry adapted basis functions of A2  symmetry.
 There are     5 symmetry adapted basis functions of B1  symmetry.
 There are     5 symmetry adapted basis functions of B2  symmetry.
    23 basis functions,    44 primitive gaussians,    24 cartesian basis functions
     9 alpha electrons        9 beta electrons
       nuclear repulsion energy         6.1547889178 Hartrees.
 NAtoms=    2 NActive=    2 NUniq=    2 SFac= 1.00D+00 NAtFMM=   60 NAOKFM=F Big=F
 Integral buffers will be    131072 words long.
 Raffenetti 2 integral format.
 Two-electron integral symmetry is turned on.
 One-electron integrals computed using PRISM.
   4 Symmetry operations used in ECPInt.
 ECPInt:  NShTT=      66 NPrTT=     302 LenC2=      67 LenP2D=     294.
 LDataN:  DoStor=T MaxTD1= 4 Len=   56
 NBasis=    23 RedAO= T EigKep=  5.41D-02  NBF=    12     1     5     5
 NBsUse=    23 1.00D-06 EigRej= -1.00D+00 NBFU=    12     1     5     5
 ExpMin= 1.22D-01 ExpMax= 9.18D+03 ExpMxC= 1.38D+03 IAcc=3 IRadAn=         5 AccDes= 0.00D+00
 Harris functional with IExCor= 1009 and IRadAn=       5 diagonalized for initial guess.
 HarFok:  IExCor= 1009 AccDes= 0.00D+00 IRadAn=         5 IDoV= 1 UseB2=F ITyADJ=14
 ICtDFT=  3500011 ScaDFX=  1.000000  1.000000  1.000000  1.000000
 FoFCou: FMM=F IPFlag=           0 FMFlag=      100000 FMFlg1=           0
         NFxFlg=           0 DoJE=T BraDBF=F KetDBF=T FulRan=T
         wScrn=  0.000000 ICntrl=       500 IOpCl=  0 I1Cent=   200000004 NGrid=           0
         NMat0=    1 NMatS0=      1 NMatT0=    0 NMatD0=    1 NMtDS0=    0 NMtDT0=    0
 Petite list used in FoFCou.
 Initial guess orbital symmetries:
       Occupied  (SG) (SG) (SG) (PI) (PI) (SG) (SG) (PI) (PI)
       Virtual   (SG) (SG) (SG) (PI) (PI) (DLTA) (DLTA) (PI) (PI)
                 (SG) (SG) (PI) (PI) (SG)
 The electronic state of the initial guess is 1-SG.
 Keep R1 ints in memory in symmetry-blocked form, NReq=20727275.
 Requested convergence on RMS density matrix=1.00D-08 within 128 cycles.
 Requested convergence on MAX density matrix=1.00D-06.
 Requested convergence on             energy=1.00D-06.
 No special actions if energy rises.
 Integral accuracy reduced to 1.0D-05 until final iterations.
 Initial convergence to 1.0D-05 achieved.  Increase integral accuracy.
 SCF Done:  E(RPBE1PBE) =  -398.520492027     A.U. after   10 cycles
            NFock= 10  Conv=0.59D-08     -V/T= 2.0018

 **********************************************************************

            Population analysis using the SCF density.

 **********************************************************************

 Orbital symmetries:
       Occupied  (SG) (SG) (SG) (PI) (PI) (SG) (SG) (PI) (PI)
       Virtual   (SG) (SG) (SG) (PI) (PI) (PI) (PI) (DLTA) (DLTA)
                 (SG) (SG) (PI) (PI) (SG)
 The electronic state is 1-SG.
 Alpha  occ. eigenvalues --  -88.64224  -7.63940  -5.58410  -5.57462  -5.57462
 Alpha  occ. eigenvalues --   -0.37221  -0.08010   0.06439   0.06439
 Alpha virt. eigenvalues --    0.31390   0.62605   0.71065   0.97756   0.97756
 Alpha virt. eigenvalues --    1.04153   1.04153   1.04795   1.04795   1.06384
 Alpha virt. eigenvalues --    1.33267   1.85265   1.85265   2.46985
          Condensed to atoms (all electrons):
               1          2
     1  S   16.701077   0.202116
     2  H    0.202116   0.894691
 Mulliken charges:
               1
     1  S   -0.903193
     2  H   -0.096807
 Sum of Mulliken charges =  -1.00000
 Mulliken charges with hydrogens summed into heavy atoms:
               1
     1  S   -1.000000
 Electronic spatial extent (au):  <R**2>=             44.3172
 Charge=             -1.0000 electrons
 Dipole moment (field-independent basis, Debye):
    X=              0.0000    Y=              0.0000    Z=             -0.5626  Tot=              0.5626
 Quadrupole moment (field-independent basis, Debye-Ang):
   XX=            -17.7651   YY=            -17.7651   ZZ=            -15.5231
   XY=              0.0000   XZ=              0.0000   YZ=              0.0000
 Traceless Quadrupole moment (field-independent basis, Debye-Ang):
   XX=             -0.7473   YY=             -0.7473   ZZ=              1.4946
   XY=              0.0000   XZ=              0.0000   YZ=              0.0000
 Octapole moment (field-independent basis, Debye-Ang**2):
  XXX=              0.0000  YYY=              0.0000  ZZZ=              0.9879  XYY=              0.0000
  XXY=              0.0000  XXZ=             -0.1893  XZZ=              0.0000  YZZ=              0.0000
  YYZ=             -0.1893  XYZ=              0.0000
 Hexadecapole moment (field-independent basis, Debye-Ang**3):
 XXXX=            -23.3651 YYYY=            -23.3651 ZZZZ=            -30.0880 XXXY=              0.0000
 XXXZ=              0.0000 YYYX=              0.0000 YYYZ=              0.0000 ZZZX=              0.0000
 ZZZY=              0.0000 XXYY=             -7.7884 XXZZ=             -9.0184 YYZZ=             -9.0184
 XXYZ=              0.0000 YYXZ=              0.0000 ZZXY=              0.0000
 N-N= 6.154788917763D+00 E-N=-9.664960392446D+02  KE= 3.977995063773D+02
 Symmetry A1   KE= 3.213865827809D+02
 Symmetry A2   KE= 3.783561739932D-51
 Symmetry B1   KE= 3.820646179824D+01
 Symmetry B2   KE= 3.820646179824D+01
   4 Symmetry operations used in ECPInt.
 ECPInt:  NShTT=      66 NPrTT=     302 LenC2=      67 LenP2D=     294.
 LDataN:  DoStor=T MaxTD1= 5 Len=  102
 Calling FoFJK, ICntrl=      2127 FMM=F ISym2X=1 I1Cent= 0 IOpClX= 0 NMat=1 NMatS=1 NMatT=0.
 ***** Axes restored to original set *****
 -------------------------------------------------------------------
 Center     Atomic                   Forces (Hartrees/Bohr)
 Number     Number              X              Y              Z
 -------------------------------------------------------------------
      1       16           0.007227959   -0.000000000   -0.000000000
      2        1          -0.007227959   -0.000000000   -0.000000000
 -------------------------------------------------------------------
 Cartesian Forces:  Max     0.007227959 RMS     0.004173064

 GradGradGradGradGradGradGradGradGradGradGradGradGradGradGradGradGradGrad
 Berny optimization.
 FormGI is forming the generalized inverse of G from B-inverse, IUseBI=4.
 Internal  Forces:  Max     0.007227959 RMS     0.007227959
 Search for a local minimum.
 Step number   1 out of a maximum of   20
 All quantities printed in internal units (Hartrees-Bohrs-Radians)
 Mixed Optimization -- RFO/linear search
 Second derivative matrix not updated -- first step.
 The second derivative matrix:
                          R1
           R1           0.23764
 ITU=  0
     Eigenvalues ---    0.23764
 RFO step:  Lambda=-2.19643686D-04 EMin= 2.37635542D-01
 Linear search not attempted -- first point.
 Iteration  1 RMS(Cart)=  0.02148761 RMS(Int)=  0.00000000
 Iteration  2 RMS(Cart)=  0.00000000 RMS(Int)=  0.00000000
 ClnCor:  largest displacement from symmetrization is 0.00D+00 for atom     0.
 Variable       Old X    -DE/DX   Delta X   Delta X   Delta X     New X
                                 (Linear)    (Quad)   (Total)
    R1        2.59960  -0.00723   0.00000  -0.03039  -0.03039   2.56921
         Item               Value     Threshold  Converged?
 Maximum Force            0.007228     0.000450     NO 
 RMS     Force            0.007228     0.000300     NO 
 Maximum Displacement     0.015194     0.001800     NO 
 RMS     Displacement     0.021488     0.001200     NO 
 Predicted change in Energy=-1.099233D-04
 GradGradGradGradGradGradGradGradGradGradGradGradGradGradGradGradGradGrad

                          Input orientation:                          
 ---------------------------------------------------------------------
 Center     Atomic      Atomic             Coordinates (Angstroms)
 Number     Number       Type             X           Y           Z
 ---------------------------------------------------------------------
      1         16           0       -3.476610    0.304950    0.000000
      2          1           0       -2.117040    0.304950    0.000000
 ---------------------------------------------------------------------
 Stoichiometry    HS(1-)
 Framework group  C*V[C*(HS)]
 Deg. of freedom     1
 Full point group                 C*V     NOp   4
 Largest Abelian subgroup         C2V     NOp   4
 Largest concise Abelian subgroup C1      NOp   1
                         Standard orientation:                         
 ---------------------------------------------------------------------
 Center     Atomic      Atomic             Coordinates (Angstroms)
 Number     Number       Type             X           Y           Z
 ---------------------------------------------------------------------
      1         16           0        0.000000    0.000000    0.079975
      2          1           0        0.000000    0.000000   -1.279595
 ---------------------------------------------------------------------
 Rotational constants (GHZ):           0.0000000         279.8387504         279.8387504
 Standard basis: def2SVP (5D, 7F)
 There are    13 symmetry adapted cartesian basis functions of A1  symmetry.
 There are     1 symmetry adapted cartesian basis functions of A2  symmetry.
 There are     5 symmetry adapted cartesian basis functions of B1  symmetry.
 There are     5 symmetry adapted cartesian basis functions of B2  symmetry.
 There are    12 symmetry adapted basis functions of A1  symmetry.
 There are     1 symmetry adapted basis functions of A2  symmetry.
 There are     5 symmetry adapted basis functions of B1  symmetry.
 There are     5 symmetry adapted basis functions of B2  symmetry.
    23 basis functions,    44 primitive gaussians,    24 cartesian basis functions
     9 alpha electrons        9 beta electrons
       nuclear repulsion energy         6.2275863377 Hartrees.
 NAtoms=    2 NActive=    2 NUniq=    2 SFac= 1.00D+00 NAtFMM=   60 NAOKFM=F Big=F
 Integral buffers will be    131072 words long.
 Raffenetti 2 integral format.
 Two-electron integral symmetry is turned on.
 One-electron integrals computed using PRISM.
   4 Symmetry operations used in ECPInt.
 ECPInt:  NShTT=      66 NPrTT=     302 LenC2=      67 LenP2D=     294.
 LDataN:  DoStor=T MaxTD1= 4 Len=   56
 NBasis=    23 RedAO= T EigKep=  5.30D-02  NBF=    12     1     5     5
 NBsUse=    23 1.00D-06 EigRej= -1.00D+00 NBFU=    12     1     5     5
 Initial guess from the checkpoint file:  "sh_gas_apfd_def2svp.chk"
 B after Tr=     0.000000    0.000000   -0.000000
         Rot=    1.000000    0.000000    0.000000    0.000000 Ang=   0.00 deg.
 Initial guess orbital symmetries:
       Occupied  (SG) (SG) (SG) (PI) (PI) (SG) (SG) (PI) (PI)
       Virtual   (SG) (SG) (SG) (PI) (PI) (PI) (PI) (DLTA) (DLTA)
                 (SG) (SG) (PI) (PI) (SG)
 Keep R1 ints in memory in symmetry-blocked form, NReq=20727275.
 Requested convergence on RMS density matrix=1.00D-08 within 128 cycles.
 Requested convergence on MAX density matrix=1.00D-06.
 Requested convergence on             energy=1.00D-06.
 No special actions if energy rises.
 SCF Done:  E(RPBE1PBE) =  -398.520601704     A.U. after    8 cycles
            NFock=  8  Conv=0.81D-09     -V/T= 2.0018
   4 Symmetry operations used in ECPInt.
 ECPInt:  NShTT=      66 NPrTT=     302 LenC2=      67 LenP2D=     294.
 LDataN:  DoStor=T MaxTD1= 5 Len=  102
 Calling FoFJK, ICntrl=      2127 FMM=F ISym2X=1 I1Cent= 0 IOpClX= 0 NMat=1 NMatS=1 NMatT=0.
 ***** Axes restored to original set *****
 -------------------------------------------------------------------
 Center     Atomic                   Forces (Hartrees/Bohr)
 Number     Number              X              Y              Z
 -------------------------------------------------------------------
      1       16          -0.000117083   -0.000000000   -0.000000000
      2        1           0.000117083   -0.000000000   -0.000000000
 -------------------------------------------------------------------
 Cartesian Forces:  Max     0.000117083 RMS     0.000067598

 GradGradGradGradGradGradGradGradGradGradGradGradGradGradGradGradGradGrad
 Berny optimization.
 Using GEDIIS/GDIIS optimizer.
 Internal  Forces:  Max     0.000117083 RMS     0.000117083
 Search for a local minimum.
 Step number   2 out of a maximum of   20
 All quantities printed in internal units (Hartrees-Bohrs-Radians)
 Mixed Optimization -- En-DIIS/RFO-DIIS
 Update second derivatives using D2CorX and points    1    2
 DE= -1.10D-04 DEPred=-1.10D-04 R= 9.98D-01
 TightC=F SS=  1.41D+00  RLast= 3.04D-02 DXNew= 5.0454D-01 9.1164D-02
 Trust test= 9.98D-01 RLast= 3.04D-02 DXMaxT set to 3.00D-01
 The second derivative matrix:
                          R1
           R1           0.24171
 ITU=  1  0
 Use linear search instead of GDIIS.
     Eigenvalues ---    0.24171
 RFO step:  Lambda= 0.00000000D+00 EMin= 2.41708114D-01
 Quartic linear search produced a step of -0.01528.
 Iteration  1 RMS(Cart)=  0.00032822 RMS(Int)=  0.00000000
 Iteration  2 RMS(Cart)=  0.00000000 RMS(Int)=  0.00000000
 ClnCor:  largest displacement from symmetrization is 0.00D+00 for atom     0.
 Variable       Old X    -DE/DX   Delta X   Delta X   Delta X     New X
                                 (Linear)    (Quad)   (Total)
    R1        2.56921   0.00012   0.00046   0.00000   0.00046   2.56968
         Item               Value     Threshold  Converged?
 Maximum Force            0.000117     0.000450     YES
 RMS     Force            0.000117     0.000300     YES
 Maximum Displacement     0.000232     0.001800     YES
 RMS     Displacement     0.000328     0.001200     YES
 Predicted change in Energy=-2.830802D-08
 Optimization completed.
    -- Stationary point found.
                           ----------------------------
                           !   Optimized Parameters   !
                           ! (Angstroms and Degrees)  !
 --------------------------                            --------------------------
 ! Name  Definition              Value          Derivative Info.                !
 --------------------------------------------------------------------------------
 ! R1    R(1,2)                  1.3596         -DE/DX =    0.0001              !
 --------------------------------------------------------------------------------
 GradGradGradGradGradGradGradGradGradGradGradGradGradGradGradGradGradGrad

                          Input orientation:                          
 ---------------------------------------------------------------------
 Center     Atomic      Atomic             Coordinates (Angstroms)
 Number     Number       Type             X           Y           Z
 ---------------------------------------------------------------------
      1         16           0       -3.476610    0.304950    0.000000
      2          1           0       -2.117040    0.304950    0.000000
 ---------------------------------------------------------------------
 Stoichiometry    HS(1-)
 Framework group  C*V[C*(HS)]
 Deg. of freedom     1
 Full point group                 C*V     NOp   4
 Largest Abelian subgroup         C2V     NOp   4
 Largest concise Abelian subgroup C1      NOp   1
                         Standard orientation:                         
 ---------------------------------------------------------------------
 Center     Atomic      Atomic             Coordinates (Angstroms)
 Number     Number       Type             X           Y           Z
 ---------------------------------------------------------------------
      1         16           0        0.000000    0.000000    0.079975
      2          1           0        0.000000    0.000000   -1.279595
 ---------------------------------------------------------------------
 Rotational constants (GHZ):           0.0000000         279.8387504         279.8387504

 **********************************************************************

            Population analysis using the SCF density.

 **********************************************************************

 Orbital symmetries:
       Occupied  (SG) (SG) (SG) (PI) (PI) (SG) (SG) (PI) (PI)
       Virtual   (SG) (SG) (SG) (PI) (PI) (PI) (PI) (DLTA) (DLTA)
                 (SG) (SG) (PI) (PI) (SG)
 The electronic state is 1-SG.
 Alpha  occ. eigenvalues --  -88.64071  -7.63816  -5.58278  -5.57340  -5.57340
 Alpha  occ. eigenvalues --   -0.37399  -0.08041   0.06471   0.06471
 Alpha virt. eigenvalues --    0.31746   0.62471   0.71211   0.97696   0.97696
 Alpha virt. eigenvalues --    1.04212   1.04212   1.04844   1.04844   1.06898
 Alpha virt. eigenvalues --    1.34199   1.86001   1.86001   2.49162
          Condensed to atoms (all electrons):
               1          2
     1  S   16.702457   0.202589
     2  H    0.202589   0.892365
 Mulliken charges:
               1
     1  S   -0.905046
     2  H   -0.094954
 Sum of Mulliken charges =  -1.00000
 Mulliken charges with hydrogens summed into heavy atoms:
               1
     1  S   -1.000000
 Electronic spatial extent (au):  <R**2>=             44.1148
 Charge=             -1.0000 electrons
 Dipole moment (field-independent basis, Debye):
    X=              0.0000    Y=              0.0000    Z=             -0.5961  Tot=              0.5961
 Quadrupole moment (field-independent basis, Debye-Ang):
   XX=            -17.7458   YY=            -17.7458   ZZ=            -15.4883
   XY=              0.0000   XZ=              0.0000   YZ=              0.0000
 Traceless Quadrupole moment (field-independent basis, Debye-Ang):
   XX=             -0.7525   YY=             -0.7525   ZZ=              1.5050
   XY=              0.0000   XZ=              0.0000   YZ=              0.0000
 Octapole moment (field-independent basis, Debye-Ang**2):
  XXX=              0.0000  YYY=              0.0000  ZZZ=              0.8447  XYY=              0.0000
  XXY=              0.0000  XXZ=             -0.2264  XZZ=              0.0000  YZZ=              0.0000
  YYZ=             -0.2264  XYZ=              0.0000
 Hexadecapole moment (field-independent basis, Debye-Ang**3):
 XXXX=            -23.3312 YYYY=            -23.3312 ZZZZ=            -29.6072 XXXY=              0.0000
 XXXZ=              0.0000 YYYX=              0.0000 YYYZ=              0.0000 ZZZX=              0.0000
 ZZZY=              0.0000 XXYY=             -7.7771 XXZZ=             -8.9316 YYZZ=             -8.9316
 XXYZ=              0.0000 YYXZ=              0.0000 ZZXY=              0.0000
 N-N= 6.227586337698D+00 E-N=-9.666660264043D+02  KE= 3.978160920196D+02
 Symmetry A1   KE= 3.214070115977D+02
 Symmetry A2   KE= 3.783561739932D-51
 Symmetry B1   KE= 3.820454021094D+01
 Symmetry B2   KE= 3.820454021094D+01

 Test job not archived.
 1\1\GINC-GRANADO-COMPUTE-12\FOpt\RPBE1PBE\def2SVP\H1S1(1-)\ROOT\11-Sep
 -2023\0\\#Opt Freq PBE1PBE/def2svp Test\\Optimization sh-solvation\\-1
 ,1\S,-3.4766096642,0.30495,0.\H,-2.1170403358,0.30495,0.\\Version=EM64
 L-G16RevA.03\State=1-SG\HF=-398.5206017\RMSD=8.081e-10\RMSF=6.760e-05\
 Dipole=0.2345229,0.,0.\Quadrupole=1.1189222,-0.5594611,-0.5594611,0.,0
 .,0.\PG=C*V [C*(H1S1)]\\@


 A MAN THINKING OR WORKING IS ALWAYS ALONE, 
 LET HIM BE WHERE HE WILL.

                                    -- THOREAU
 Job cpu time:       0 days  0 hours  8 minutes  4.9 seconds.
 Elapsed time:       0 days  0 hours 10 minutes 15.8 seconds.
 File lengths (MBytes):  RWF=      6 Int=      0 D2E=      0 Chk=      2 Scr=      1
 Normal termination of Gaussian 16 at Mon Sep 11 20:58:35 2023.
 Link1:  Proceeding to internal job step number  2.
 ----------------------------------------------------------------------
 #N Geom=AllCheck Guess=TCheck SCRF=Check Test GenChk RPBE1PBE/def2SVP 
 Freq
 ----------------------------------------------------------------------
 1/10=4,29=7,30=1,38=1,40=1/1,3;
 2/12=2,40=1/2;
 3/5=43,7=101,11=2,14=-4,25=1,30=1,70=2,71=2,74=-13,116=1,140=1/1,2,3;
 4/5=101/1;
 5/5=2,38=6,98=1/2;
 8/6=4,10=90,11=11/1;
 11/6=1,8=1,9=11,15=111,16=1/1,2,10;
 10/6=1/2;
 6/7=2,8=2,9=2,10=2,28=1/1;
 7/8=1,10=1,25=1/1,2,3,16;
 1/10=4,30=1/3;
 99//99;
 Structure from the checkpoint file:  "sh_gas_apfd_def2svp.chk"
 -------------------------
 Optimization sh-solvation
 -------------------------
 Charge = -1 Multiplicity = 1
 Redundant internal coordinates found in file.  (old form).
 S,0,-3.4766096642,0.30495,0.
 H,0,-2.1170403358,0.30495,0.
 Recover connectivity data from disk.

 GradGradGradGradGradGradGradGradGradGradGradGradGradGradGradGradGradGrad
 Berny optimization.
 Initialization pass.
                           ----------------------------
                           !    Initial Parameters    !
                           ! (Angstroms and Degrees)  !
 --------------------------                            --------------------------
 ! Name  Definition              Value          Derivative Info.                !
 --------------------------------------------------------------------------------
 ! R1    R(1,2)                  1.3596         calculate D2E/DX2 analytically  !
 --------------------------------------------------------------------------------
 Trust Radius=3.00D-01 FncErr=1.00D-07 GrdErr=1.00D-07 EigMax=2.50D+02 EigMin=1.00D-04
 Number of steps in this run=      2 maximum allowed number of steps=      2.
 GradGradGradGradGradGradGradGradGradGradGradGradGradGradGradGradGradGrad

                          Input orientation:                          
 ---------------------------------------------------------------------
 Center     Atomic      Atomic             Coordinates (Angstroms)
 Number     Number       Type             X           Y           Z
 ---------------------------------------------------------------------
      1         16           0       -3.476610    0.304950    0.000000
      2          1           0       -2.117040    0.304950    0.000000
 ---------------------------------------------------------------------
 Stoichiometry    HS(1-)
 Framework group  C*V[C*(HS)]
 Deg. of freedom     1
 Full point group                 C*V     NOp   4
 Largest Abelian subgroup         C2V     NOp   4
 Largest concise Abelian subgroup C1      NOp   1
                         Standard orientation:                         
 ---------------------------------------------------------------------
 Center     Atomic      Atomic             Coordinates (Angstroms)
 Number     Number       Type             X           Y           Z
 ---------------------------------------------------------------------
      1         16           0        0.000000    0.000000    0.079975
      2          1           0        0.000000    0.000000   -1.279595
 ---------------------------------------------------------------------
 Rotational constants (GHZ):           0.0000000         279.8387504         279.8387504
 Standard basis: def2SVP (5D, 7F)
 There are    13 symmetry adapted cartesian basis functions of A1  symmetry.
 There are     1 symmetry adapted cartesian basis functions of A2  symmetry.
 There are     5 symmetry adapted cartesian basis functions of B1  symmetry.
 There are     5 symmetry adapted cartesian basis functions of B2  symmetry.
 There are    12 symmetry adapted basis functions of A1  symmetry.
 There are     1 symmetry adapted basis functions of A2  symmetry.
 There are     5 symmetry adapted basis functions of B1  symmetry.
 There are     5 symmetry adapted basis functions of B2  symmetry.
    23 basis functions,    44 primitive gaussians,    24 cartesian basis functions
     9 alpha electrons        9 beta electrons
       nuclear repulsion energy         6.2275863377 Hartrees.
 NAtoms=    2 NActive=    2 NUniq=    2 SFac= 1.00D+00 NAtFMM=   60 NAOKFM=F Big=F
 Integral buffers will be    131072 words long.
 Raffenetti 2 integral format.
 Two-electron integral symmetry is turned on.
 One-electron integrals computed using PRISM.
   4 Symmetry operations used in ECPInt.
 ECPInt:  NShTT=      66 NPrTT=     302 LenC2=      67 LenP2D=     294.
 LDataN:  DoStor=T MaxTD1= 4 Len=   56
 NBasis=    23 RedAO= T EigKep=  5.30D-02  NBF=    12     1     5     5
 NBsUse=    23 1.00D-06 EigRej= -1.00D+00 NBFU=    12     1     5     5
 SCF restart from the checkpoint file:  "sh_gas_apfd_def2svp.chk"
 B after Tr=     0.000000    0.000000   -0.000000
         Rot=    1.000000    0.000000    0.000000    0.000000 Ang=   0.00 deg.
 Initial guess orbital symmetries:
       Occupied  (SG) (SG) (SG) (PI) (PI) (SG) (SG) (PI) (PI)
       Virtual   (SG) (SG) (SG) (PI) (PI) (PI) (PI) (DLTA) (DLTA)
                 (SG) (SG) (PI) (PI) (SG)
 Keep R1 ints in memory in symmetry-blocked form, NReq=20727275.
 Requested convergence on RMS density matrix=1.00D-08 within 128 cycles.
 Requested convergence on MAX density matrix=1.00D-06.
 Requested convergence on             energy=1.00D-06.
 No special actions if energy rises.
 Skip diagonalization as Alpha Fock matrix is already diagonal.
 SCF Done:  E(RPBE1PBE) =  -398.520601704     A.U. after    1 cycles
            NFock=  1  Conv=0.00D+00     -V/T= 2.0018
 DoSCS=F DFT=T ScalE2(SS,OS)=  1.000000  1.000000
 Range of M.O.s used for correlation:     1    23
 NBasis=    23 NAE=     9 NBE=     9 NFC=     0 NFV=     0
 NROrb=     23 NOA=     9 NOB=     9 NVA=    14 NVB=    14
   4 Symmetry operations used in ECPInt.
 ECPInt:  NShTT=      66 NPrTT=     302 LenC2=      67 LenP2D=     294.
 LDataN:  DoStor=T MaxTD1= 5 Len=  102
 Symmetrizing basis deriv contribution to polar:
 IMax=3 JMax=2 DiffMx= 0.00D+00
 G2DrvN: will do     3 centers at a time, making    1 passes.
 Calling FoFCou, ICntrl=  3107 FMM=F I1Cent=   0 AccDes= 0.00D+00.
 End of G2Drv F.D. properties file   721 does not exist.
 End of G2Drv F.D. properties file   722 does not exist.
 End of G2Drv F.D. properties file   788 does not exist.
          IDoAtm=11
          Differentiating once with respect to electric field.
                with respect to dipole field.
          Differentiating once with respect to nuclear coordinates.
 Keep R1 ints in memo          There are     9 degrees of freedom          There are     9 degrees of freedom in the 1st order CPHF.  IDoFFX=6 NUNeed=     3.
      6 vectors produced by pass  0 Test12= 1.40D-15 1.11D-08 XBig12= 1.59D+01 3.72D+00.
 AX will form     6 AO Fock derivatives at one time.
      6 vectors produced by pass  1 Test12= 1.40D-15 1.11D-08 XBig12= 7.90D-01 4.91D-01.
      6 vectors produced by pass  2 Test12= 1.40D-15 1.11D-08 XBig12= 1.06D-02 5.23D-02.
      6 vectors produced by pass  3 Test12= 1.40D-15 1.11D-08 XBig12= 2.79D-05 1.73D-03.
      6 vectors produced by pass  4 Test12= 1.40D-15 1.11D-08 XBig12= 8.97D-08 1.19D-04.
      4 vectors produced by pass  5 Test12= 1.40D-15 1.11D-08 XBig12= 6.19D-11 2.42D-06.
      1 vectors produced by pass  6 Test12= 1.40D-15 1.11D-08 XBig12= 3.12D-14 8.67D-08.
 InvSVY:  IOpt=1 It=  1 EMax= 2.22D-16
 Solved reduced A of dimension    35 with     6 vectors.
 Isotropic polarizability for W=    0.000000       13.50 Bohr**3.
 End of Minotr F.D. properties file   721 does not exist.
 End of Minotr F.D. properties file   722 does not exist.
 End of Minotr F.D. properties file   788 does not exist.

 **********************************************************************

            Population analysis using the SCF density.

 **********************************************************************

 Orbital symmetries:
       Occupied  (SG) (SG) (SG) (PI) (PI) (SG) (SG) (PI) (PI)
       Virtual   (SG) (SG) (SG) (PI) (PI) (PI) (PI) (DLTA) (DLTA)
                 (SG) (SG) (PI) (PI) (SG)
 The electronic state is 1-SG.
 Alpha  occ. eigenvalues --  -88.64071  -7.63816  -5.58278  -5.57340  -5.57340
 Alpha  occ. eigenvalues --   -0.37399  -0.08041   0.06471   0.06471
 Alpha virt. eigenvalues --    0.31746   0.62471   0.71211   0.97696   0.97696
 Alpha virt. eigenvalues --    1.04212   1.04212   1.04844   1.04844   1.06898
 Alpha virt. eigenvalues --    1.34199   1.86001   1.86001   2.49162
          Condensed to atoms (all electrons):
               1          2
     1  S   16.702457   0.202589
     2  H    0.202589   0.892365
 Mulliken charges:
               1
     1  S   -0.905046
     2  H   -0.094954
 Sum of Mulliken charges =  -1.00000
 Mulliken charges with hydrogens summed into heavy atoms:
               1
     1  S   -1.000000
 APT charges:
               1
     1  S   -0.859332
     2  H   -0.140668
 Sum of APT charges =  -1.00000
 APT charges with hydrogens summed into heavy atoms:
               1
     1  S   -1.000000
 Electronic spatial extent (au):  <R**2>=             44.1148
 Charge=             -1.0000 electrons
 Dipole moment (field-independent basis, Debye):
    X=              0.0000    Y=              0.0000    Z=             -0.5961  Tot=              0.5961
 Quadrupole moment (field-independent basis, Debye-Ang):
   XX=            -17.7458   YY=            -17.7458   ZZ=            -15.4883
   XY=              0.0000   XZ=              0.0000   YZ=              0.0000
 Traceless Quadrupole moment (field-independent basis, Debye-Ang):
   XX=             -0.7525   YY=             -0.7525   ZZ=              1.5050
   XY=              0.0000   XZ=              0.0000   YZ=              0.0000
 Octapole moment (field-independent basis, Debye-Ang**2):
  XXX=              0.0000  YYY=              0.0000  ZZZ=              0.8447  XYY=              0.0000
  XXY=              0.0000  XXZ=             -0.2264  XZZ=              0.0000  YZZ=              0.0000
  YYZ=             -0.2264  XYZ=              0.0000
 Hexadecapole moment (field-independent basis, Debye-Ang**3):
 XXXX=            -23.3312 YYYY=            -23.3312 ZZZZ=            -29.6072 XXXY=              0.0000
 XXXZ=              0.0000 YYYX=              0.0000 YYYZ=              0.0000 ZZZX=              0.0000
 ZZZY=              0.0000 XXYY=             -7.7771 XXZZ=             -8.9316 YYZZ=             -8.9316
 XXYZ=              0.0000 YYXZ=              0.0000 ZZXY=              0.0000
 N-N= 6.227586337698D+00 E-N=-9.666660264043D+02  KE= 3.978160920196D+02
 Symmetry A1   KE= 3.214070115977D+02
 Symmetry A2   KE= 0.000000000000D+00
 Symmetry B1   KE= 3.820454021094D+01
 Symmetry B2   KE= 3.820454021094D+01
  Exact polarizability:   9.799  -0.000   9.799   0.000   0.000  20.916
 Approx polarizability:  12.112  -0.000  12.112  -0.000  -0.000  29.133
   4 Symmetry operations used in ECPInt.
 ECPInt:  NShTT=      66 NPrTT=     302 LenC2=      67 LenP2D=     294.
 LDataN:  DoStor=T MaxTD1= 6 Len=  172
 Calling FoFJK, ICntrl=    100127 FMM=F ISym2X=1 I1Cent= 0 IOpClX= 0 NMat=1 NMatS=1 NMatT=0.
 Full mass-weighted force constant matrix:
 Low frequencies ---   -0.0066   -0.0066   -0.0047   38.3023   38.3023 2613.0840
 Diagonal vibrational polarizability:
        0.0000000       0.0000000       0.8187519
 Harmonic frequencies (cm**-1), IR intensities (KM/Mole), Raman scattering
 activities (A**4/AMU), depolarization ratios for plane and unpolarized
 incident light, reduced masses (AMU), force constants (mDyne/A),
 and normal coordinates:
                      1
                     SG
 Frequencies --   2613.0840
 Red. masses --      1.0386
 Frc consts  --      4.1782
 IR Inten    --    207.7428
  Atom  AN      X      Y      Z
     1  16    -0.00  -0.00  -0.03
     2   1    -0.00  -0.00   1.00

 -------------------
 - Thermochemistry -
 -------------------
 Temperature   298.150 Kelvin.  Pressure   1.00000 Atm.
 Atom     1 has atomic number 16 and mass  31.97207
 Atom     2 has atomic number  1 and mass   1.00783
 Molecular mass:    32.97990 amu.
 Principal axes and moments of inertia in atomic units:
                           1         2         3
     Eigenvalues --     0.00000   6.44922   6.44922
           X            0.00000  -0.00000   1.00000
           Y            0.00000   1.00000   0.00000
           Z            1.00000   0.00000   0.00000
 This molecule is a prolate symmetric top.
 Rotational symmetry number  1.
 Rotational temperature (Kelvin)     13.43014
 Rotational constant (GHZ):         279.838750
 Zero-point vibrational energy      15629.7 (Joules/Mol)
                                    3.73559 (Kcal/Mol)
 Vibrational temperatures:   3759.64
          (Kelvin)
 
 Zero-point correction=                           0.005953 (Hartree/Particle)
 Thermal correction to Energy=                    0.008314
 Thermal correction to Enthalpy=                  0.009258
 Thermal correction to Gibbs Free Energy=        -0.011914
 Sum of electronic and zero-point Energies=           -398.514649
 Sum of electronic and thermal Energies=              -398.512288
 Sum of electronic and thermal Enthalpies=            -398.511344
 Sum of electronic and thermal Free Energies=         -398.532516
 
                     E (Thermal)             CV                S
                      KCal/Mol        Cal/Mol-Kelvin    Cal/Mol-Kelvin
 Total                    5.217              4.969             44.559
 Electronic               0.000              0.000              0.000
 Translational            0.889              2.981             36.411
 Rotational               0.592              1.987              8.148
 Vibrational              3.736              0.001              0.000
                       Q            Log10(Q)             Ln(Q)
 Total Bot       0.301979D+06          5.479976         12.618111
 Total V=0       0.165266D+09          8.218183         18.923067
 Vib (Bot)       0.182723D-02         -2.738206         -6.304952
 Vib (V=0)       0.100000D+01          0.000001          0.000003
 Electronic      0.100000D+01          0.000000          0.000000
 Translational   0.744437D+07          6.871828         15.822968
 Rotational      0.222001D+02          1.346354          3.100095
 ***** Axes restored to original set *****
 -------------------------------------------------------------------
 Center     Atomic                   Forces (Hartrees/Bohr)
 Number     Number              X              Y              Z
 -------------------------------------------------------------------
      1       16          -0.000117083   -0.000000000   -0.000000000
      2        1           0.000117083   -0.000000000   -0.000000000
 -------------------------------------------------------------------
 Cartesian Forces:  Max     0.000117083 RMS     0.000067598
 FormGI is forming the generalized inverse of G from B-inverse, IUseBI=4.

 GradGradGradGradGradGradGradGradGradGradGradGradGradGradGradGradGradGrad
 Berny optimization.
 Internal  Forces:  Max     0.000117083 RMS     0.000117083
 Search for a local minimum.
 Step number   1 out of a maximum of    2
 All quantities printed in internal units (Hartrees-Bohrs-Radians)
 Second derivative matrix not updated -- analytic derivatives used.
 The second derivative matrix:
                          R1
           R1           0.25247
 ITU=  0
     Eigenvalues ---    0.25247
 Angle between quadratic step and forces=   0.00 degrees.
 Linear search not attempted -- first point.
 Iteration  1 RMS(Cart)=  0.00032792 RMS(Int)=  0.00000000
 Iteration  2 RMS(Cart)=  0.00000000 RMS(Int)=  0.00000000
 ClnCor:  largest displacement from symmetrization is 0.00D+00 for atom     0.
 Variable       Old X    -DE/DX   Delta X   Delta X   Delta X     New X
                                 (Linear)    (Quad)   (Total)
    R1        2.56921   0.00012   0.00000   0.00046   0.00046   2.56968
         Item               Value     Threshold  Converged?
 Maximum Force            0.000117     0.000450     YES
 RMS     Force            0.000117     0.000300     YES
 Maximum Displacement     0.000232     0.001800     YES
 RMS     Displacement     0.000328     0.001200     YES
 Predicted change in Energy=-2.714898D-08
 Optimization completed.
    -- Stationary point found.
                           ----------------------------
                           !   Optimized Parameters   !
                           ! (Angstroms and Degrees)  !
 --------------------------                            --------------------------
 ! Name  Definition              Value          Derivative Info.                !
 --------------------------------------------------------------------------------
 ! R1    R(1,2)                  1.3596         -DE/DX =    0.0001              !
 --------------------------------------------------------------------------------
 GradGradGradGradGradGradGradGradGradGradGradGradGradGradGradGradGradGrad


 ----------------------------------------------------------------------

 Electric dipole moment (input orientation):
 (Debye = 10**-18 statcoulomb cm , SI units = C m)
                  (au)            (Debye)         (10**-30 SI)
   Tot        0.234523D+00      0.596098D+00      0.198837D+01
   x          0.234523D+00      0.596098D+00      0.198837D+01
   y          0.000000D+00      0.000000D+00      0.000000D+00
   z          0.000000D+00      0.000000D+00      0.000000D+00

 Dipole polarizability, Alpha (input orientation).
 (esu units = cm**3 , SI units = C**2 m**2 J**-1)
 Alpha(0;0):
               (au)            (10**-24 esu)      (10**-40 SI)
   iso        0.135047D+02      0.200119D+01      0.222663D+01
   aniso      0.111172D+02      0.164739D+01      0.183297D+01
   xx         0.209162D+02      0.309945D+01      0.344861D+01
   yx         0.000000D+00      0.000000D+00      0.000000D+00
   yy         0.979900D+01      0.145206D+01      0.161564D+01
   zx         0.000000D+00      0.000000D+00      0.000000D+00
   zy         0.000000D+00      0.000000D+00      0.000000D+00
   zz         0.979900D+01      0.145206D+01      0.161564D+01

 ----------------------------------------------------------------------

 Dipole orientation:
    16         -0.00000000          0.57627198         -6.56984011
     1         -0.00000000          0.57627198         -4.00062643

 Electric dipole moment (dipole orientation):
 (Debye = 10**-18 statcoulomb cm , SI units = C m)
                  (au)            (Debye)         (10**-30 SI)
   Tot        0.234523D+00      0.596098D+00      0.198837D+01
   x          0.000000D+00      0.000000D+00      0.000000D+00
   y          0.000000D+00      0.000000D+00      0.000000D+00
   z          0.234523D+00      0.596098D+00      0.198837D+01

 Dipole polarizability, Alpha (dipole orientation).
 (esu units = cm**3 , SI units = C**2 m**2 J**-1)
 Alpha(0;0):
               (au)            (10**-24 esu)      (10**-40 SI)
   iso        0.135047D+02      0.200119D+01      0.222663D+01
   aniso      0.111172D+02      0.164739D+01      0.183297D+01
   xx         0.979900D+01      0.145206D+01      0.161564D+01
   yx         0.000000D+00      0.000000D+00      0.000000D+00
   yy         0.979900D+01      0.145206D+01      0.161564D+01
   zx         0.000000D+00      0.000000D+00      0.000000D+00
   zy         0.000000D+00      0.000000D+00      0.000000D+00
   zz         0.209162D+02      0.309945D+01      0.344861D+01

 ----------------------------------------------------------------------

 Test job not archived.
 1\1\GINC-GRANADO-COMPUTE-12\Freq\RPBE1PBE\def2SVP\H1S1(1-)\ROOT\11-Sep
 -2023\0\\#N Geom=AllCheck Guess=TCheck SCRF=Check Test GenChk RPBE1PBE
 /def2SVP Freq\\Optimization sh-solvation\\-1,1\S,-3.4766096642,0.30495
 ,0.\H,-2.1170403358,0.30495,0.\\Version=EM64L-G16RevA.03\State=1-SG\HF
 =-398.5206017\RMSD=0.000e+00\RMSF=6.760e-05\ZeroPoint=0.005953\Thermal
 =0.0083135\Dipole=0.2345229,0.,0.\DipoleDeriv=-0.5131515,0.,0.,0.,-1.0
 32422,0.,0.,0.,-1.032422,-0.4868485,0.,0.,0.,0.032422,0.,0.,0.,0.03242
 2\Polar=20.916152,0.,9.7990014,0.,0.,9.7990014\Quadrupole=1.1189222,-0
 .5594611,-0.5594611,0.,0.,0.\PG=C*V [C*(H1S1)]\NImag=0\\0.25246711,0.,
 0.00005424,0.,0.,0.00005424,-0.25246711,0.,0.,0.25246711,0.,-0.0000542
 4,0.,0.,0.00005424,0.,0.,-0.00005424,0.,0.,0.00005424\\0.00011708,0.,0
 .,-0.00011708,0.,0.\\\@


 GOOD SENSE ABOUT TRIVIALITIES IS BETTER THAN NONSENSE
 ABOUT THINGS THAT MATTER

                                       -- MAX BEERBOHM
 Job cpu time:       0 days  0 hours  8 minutes  5.4 seconds.
 Elapsed time:       0 days  0 hours  3 minutes 42.4 seconds.
 File lengths (MBytes):  RWF=      6 Int=      0 D2E=      0 Chk=      2 Scr=      1
 Normal termination of Gaussian 16 at Mon Sep 11 21:02:20 2023.
 21:02:06 2023.
  6 Int=      0 D2E=      0 Chk=      2 Scr=      1
 Normal termination of Gaussian 16 at Mon Sep 11 21:01:50 2023.
      -- WALTER LIPPMANN
 Job cpu time:       0 days  0 hours  6 minutes 46.1 seconds.
 Elapsed time:       0 days  0 hours  4 minutes 59.8 seconds.
 File lengths (MBytes):  RWF=      6 Int=      0 D2E=      0 Chk=      2 Scr=      1
 Normal termination of Gaussian 16 at Mon Sep 11 21:01:26 2023.
    THE THEORISTS SIT SAFELY AT THEIR TERMINALS FIXING ERRORS.
 IN OTHER WORDS, EXPERIMENTALISTS WILL LIKELY DIE OF CANCER
     FROM WORKING HARD YET FRUITLESSLY...TILL THEORY GIVES THE ANSWER.
          -- THOMAS A. HOLME, 1983
 Job cpu time:       0 days  0 hours  7 minutes 15.3 seconds.
 Elapsed time:       0 days  0 hours  4 minutes 24.7 seconds.
 File lengths (MBytes):  RWF=      6 Int=      0 D2E=      0 Chk=      2 Scr=      1
 Normal termination of Gaussian 16 at Mon Sep 11 20:59:06 2023.
