 Entering Gaussian System, Link 0=g16
 Input=input.gjf
 Output=input.log
 Initial command:
 /opt/ohpc/pub/apps/gaussian/G16x86_64_legacy_CPUs_linux_binary/g16/l1.exe "/tmp/Gau-59499.inp" -scrdir="/tmp/"
 Entering Link 1 = /opt/ohpc/pub/apps/gaussian/G16x86_64_legacy_CPUs_linux_binary/g16/l1.exe PID=     59539.
  
 Copyright (c) 1988,1990,1992,1993,1995,1998,2003,2009,2016,
            Gaussian, Inc.  All Rights Reserved.
  
 This is part of the Gaussian(R) 16 program.  It is based on
 the Gaussian(R) 09 system (copyright 2009, Gaussian, Inc.),
 the Gaussian(R) 03 system (copyright 2003, Gaussian, Inc.),
 the Gaussian(R) 98 system (copyright 1998, Gaussian, Inc.),
 the Gaussian(R) 94 system (copyright 1995, Gaussian, Inc.),
 the Gaussian 92(TM) system (copyright 1992, Gaussian, Inc.),
 the Gaussian 90(TM) system (copyright 1990, Gaussian, Inc.),
 the Gaussian 88(TM) system (copyright 1988, Gaussian, Inc.),
 the Gaussian 86(TM) system (copyright 1986, Carnegie Mellon
 University), and the Gaussian 82(TM) system (copyright 1983,
 Carnegie Mellon University). Gaussian is a federally registered
 trademark of Gaussian, Inc.
  
 This software contains proprietary and confidential information,
 including trade secrets, belonging to Gaussian, Inc.
  
 This software is provided under written license and may be
 used, copied, transmitted, or stored only in accord with that
 written license.
  
 The following legend is applicable only to US Government
 contracts under FAR:
  
                    RESTRICTED RIGHTS LEGEND
  
 Use, reproduction and disclosure by the US Government is
 subject to restrictions as set forth in subparagraphs (a)
 and (c) of the Commercial Computer Software - Restricted
 Rights clause in FAR 52.227-19.
  
 Gaussian, Inc.
 340 Quinnipiac St., Bldg. 40, Wallingford CT 06492
  
  
 ---------------------------------------------------------------
 Warning -- This program may not be used in any manner that
 competes with the business of Gaussian, Inc. or will provide
 assistance to any competitor of Gaussian, Inc.  The licensee
 of this program is prohibited from giving any competitor of
 Gaussian, Inc. access to this program.  By using this program,
 the user acknowledges that Gaussian, Inc. is engaged in the
 business of creating and licensing software in the field of
 computational chemistry and represents and warrants to the
 licensee that it is not a competitor of Gaussian, Inc. and that
 it will not use this program in any manner prohibited above.
 ---------------------------------------------------------------
  

 Cite this work as:
 Gaussian 16, Revision A.03,
 M. J. Frisch, G. W. Trucks, H. B. Schlegel, G. E. Scuseria, 
 M. A. Robb, J. R. Cheeseman, G. Scalmani, V. Barone, 
 G. A. Petersson, H. Nakatsuji, X. Li, M. Caricato, A. V. Marenich, 
 J. Bloino, B. G. Janesko, R. Gomperts, B. Mennucci, H. P. Hratchian, 
 J. V. Ortiz, A. F. Izmaylov, J. L. Sonnenberg, D. Williams-Young, 
 F. Ding, F. Lipparini, F. Egidi, J. Goings, B. Peng, A. Petrone, 
 T. Henderson, D. Ranasinghe, V. G. Zakrzewski, J. Gao, N. Rega, 
 G. Zheng, W. Liang, M. Hada, M. Ehara, K. Toyota, R. Fukuda, 
 J. Hasegawa, M. Ishida, T. Nakajima, Y. Honda, O. Kitao, H. Nakai, 
 T. Vreven, K. Throssell, J. A. Montgomery, Jr., J. E. Peralta, 
 F. Ogliaro, M. J. Bearpark, J. J. Heyd, E. N. Brothers, K. N. Kudin, 
 V. N. Staroverov, T. A. Keith, R. Kobayashi, J. Normand, 
 K. Raghavachari, A. P. Rendell, J. C. Burant, S. S. Iyengar, 
 J. Tomasi, M. Cossi, J. M. Millam, M. Klene, C. Adamo, R. Cammi, 
 J. W. Ochterski, R. L. Martin, K. Morokuma, O. Farkas, 
 J. B. Foresman, and D. J. Fox, Gaussian, Inc., Wallingford CT, 2016.
 
 ******************************************
 Gaussian 16:  EM64L-G16RevA.03 25-Dec-2016
                15-Aug-2023 
 ******************************************
 %NProcShared=24
 Will use up to   24 processors via shared memory.
 %Chk=ch3hgoh_gas_apfd_def2svp.chk
 ------------------------------------------------
 #Opt Freq mp2/Def2SVP int=UltraFine scf=xqc test
 ------------------------------------------------
 1/18=20,19=15,38=1/1,3;
 2/9=110,12=2,17=6,18=5,40=1/2;
 3/5=43,7=101,11=9,25=1,30=1,71=1,75=-5/1,2,3;
 4//1;
 5/5=2,8=3,13=1,38=5/2,8;
 8/6=4,10=1/1;
 9/15=2,16=-3/6;
 10/5=1/2;
 6/7=2,8=2,9=2,10=2/1;
 7/12=2/1,2,3,16;
 1/18=20,19=15/3(2);
 2/9=110/2;
 99//99;
 2/9=110/2;
 3/5=43,7=101,11=9,25=1,30=1,71=1,75=-5/1,2,3;
 4/5=5,16=3,69=1/1;
 5/5=2,8=3,13=1,38=5/2,8;
 8/6=4,10=1/1;
 9/15=2,16=-3/6;
 10/5=1/2;
 7/12=2/1,2,3,16;
 1/18=20,19=15/3(-8);
 2/9=110/2;
 6/7=2,8=2,9=2,10=2/1;
 99//99;
 ------------------------------------------
 Optimization MeHgoh-gas-apfd-def2svp phase
 ------------------------------------------
 Symbolic Z-matrix:
 Charge =  0 Multiplicity = 1
 C                    -9.57536   2.78239  -0.00001 
 Hg                   -7.49454   3.01386  -0.00018 
 H                    -10.05261   3.72905   0.32683 
 H                    -9.85645   1.96647   0.69713 
 H                    -9.91919   2.52901  -1.02388 
 O                    -5.52159   3.23238  -0.00034 
 H                    -5.16996   2.30668   0.0005 
 

 GradGradGradGradGradGradGradGradGradGradGradGradGradGradGradGradGradGrad
 Berny optimization.
 Initialization pass.
                           ----------------------------
                           !    Initial Parameters    !
                           ! (Angstroms and Degrees)  !
 --------------------------                            --------------------------
 ! Name  Definition              Value          Derivative Info.                !
 --------------------------------------------------------------------------------
 ! R1    R(1,2)                  2.0937         estimate D2E/DX2                !
 ! R2    R(1,3)                  1.1094         estimate D2E/DX2                !
 ! R3    R(1,4)                  1.1094         estimate D2E/DX2                !
 ! R4    R(1,5)                  1.1094         estimate D2E/DX2                !
 ! R5    R(2,6)                  1.985          estimate D2E/DX2                !
 ! R6    R(6,7)                  0.9902         estimate D2E/DX2                !
 ! A1    A(2,1,3)              109.4653         estimate D2E/DX2                !
 ! A2    A(2,1,4)              109.4621         estimate D2E/DX2                !
 ! A3    A(2,1,5)              109.4634         estimate D2E/DX2                !
 ! A4    A(3,1,4)              109.4784         estimate D2E/DX2                !
 ! A5    A(3,1,5)              109.4794         estimate D2E/DX2                !
 ! A6    A(4,1,5)              109.4787         estimate D2E/DX2                !
 ! A7    A(2,6,7)              104.4792         estimate D2E/DX2                !
 ! A8    L(1,2,6,7,-1)         179.9727         estimate D2E/DX2                !
 ! A9    L(1,2,6,7,-2)         180.0            estimate D2E/DX2                !
 ! D1    D(3,1,6,7)            161.7407         estimate D2E/DX2                !
 ! D2    D(4,1,6,7)             41.7394         estimate D2E/DX2                !
 ! D3    D(5,1,6,7)            -78.2516         estimate D2E/DX2                !
 --------------------------------------------------------------------------------
 Trust Radius=3.00D-01 FncErr=1.00D-07 GrdErr=1.00D-07 EigMax=2.50D+02 EigMin=1.00D-04
 Number of steps in this run=     28 maximum allowed number of steps=    100.
 GradGradGradGradGradGradGradGradGradGradGradGradGradGradGradGradGradGrad

                          Input orientation:                          
 ---------------------------------------------------------------------
 Center     Atomic      Atomic             Coordinates (Angstroms)
 Number     Number       Type             X           Y           Z
 ---------------------------------------------------------------------
      1          6           0       -9.575360    2.782390   -0.000010
      2         80           0       -7.494540    3.013860   -0.000180
      3          1           0      -10.052610    3.729050    0.326830
      4          1           0       -9.856450    1.966470    0.697130
      5          1           0       -9.919190    2.529010   -1.023880
      6          8           0       -5.521590    3.232380   -0.000340
      7          1           0       -5.169960    2.306680    0.000500
 ---------------------------------------------------------------------
                    Distance matrix (angstroms):
                    1          2          3          4          5
     1  C    0.000000
     2  Hg   2.093655   0.000000
     3  H    1.109395   2.676220   0.000000
     4  H    1.109388   2.676170   1.811709   0.000000
     5  H    1.109383   2.676186   1.811716   1.811702   0.000000
     6  O    4.078669   1.985015   4.569887   4.569464   4.569601
     7  H    4.431010   2.429769   5.096067   4.750182   4.863535
                    6          7
     6  O    0.000000
     7  H    0.990235   0.000000
 Stoichiometry    CH4HgO
 Framework group  C1[X(CH4HgO)]
 Deg. of freedom    15
 Full point group                 C1      NOp   1
 Largest Abelian subgroup         C1      NOp   1
 Largest concise Abelian subgroup C1      NOp   1
                         Standard orientation:                         
 ---------------------------------------------------------------------
 Center     Atomic      Atomic             Coordinates (Angstroms)
 Number     Number       Type             X           Y           Z
 ---------------------------------------------------------------------
      1          6           0       -2.074360    0.047629    0.000001
      2         80           0        0.018491   -0.010388    0.000000
      3          1           0       -2.471435   -0.935076   -0.327686
      4          1           0       -2.422221    0.838029   -0.696421
      5          1           0       -2.437970    0.270701    1.024089
      6          8           0        2.002769   -0.064451   -0.000000
      7          1           0        2.276377    0.887234   -0.000014
 ---------------------------------------------------------------------
 Rotational constants (GHZ):         120.4017305           3.5925805           3.5700073
 Standard basis: def2SVP (5D, 7F)
 There are    87 symmetry adapted cartesian basis functions of A   symmetry.
 There are    80 symmetry adapted basis functions of A   symmetry.
    80 basis functions,   143 primitive gaussians,    87 cartesian basis functions
    19 alpha electrons       19 beta electrons
       nuclear repulsion energy       112.9889227196 Hartrees.
 NAtoms=    7 NActive=    7 NUniq=    7 SFac= 1.00D+00 NAtFMM=   60 NAOKFM=F Big=F
 Integral buffers will be    131072 words long.
 Raffenetti 1 integral format.
 Two-electron integral symmetry is turned on.
 One-electron integrals computed using PRISM.
 PrsmSu:  requested number of processors reduced to:  13 ShMem   1 Linda.
   1 Symmetry operations used in ECPInt.
 ECPInt:  NShTT=     666 NPrTT=    2067 LenC2=     666 LenP2D=    1822.
 LDataN:  DoStor=T MaxTD1= 8 Len=  415
 NBasis=    80 RedAO= T EigKep=  7.38D-03  NBF=    80
 NBsUse=    80 1.00D-06 EigRej= -1.00D+00 NBFU=    80
 ExpMin= 5.64D-02 ExpMax= 2.27D+03 ExpMxC= 3.41D+02 IAcc=3 IRadAn=         5 AccDes= 0.00D+00
 Harris functional with IExCor=  205 and IRadAn=       5 diagonalized for initial guess.
 HarFok:  IExCor=  205 AccDes= 0.00D+00 IRadAn=         5 IDoV= 1 UseB2=F ITyADJ=14
 ICtDFT=  3500011 ScaDFX=  1.000000  1.000000  1.000000  1.000000
 Defaulting to unpruned grid for atomic number  80.
 FoFCou: FMM=F IPFlag=           0 FMFlag=      100000 FMFlg1=           0
         NFxFlg=           0 DoJE=T BraDBF=F KetDBF=T FulRan=T
         wScrn=  0.000000 ICntrl=       500 IOpCl=  0 I1Cent=   200000004 NGrid=           0
         NMat0=    1 NMatS0=      1 NMatT0=    0 NMatD0=    1 NMtDS0=    0 NMtDT0=    0
 Petite list used in FoFCou.
 Keep R1 ints in memory in canonical form, NReq=16971363.
 Requested convergence on RMS density matrix=1.00D-08 within  32 cycles.
 Requested convergence on MAX density matrix=1.00D-06.
 Requested convergence on             energy=1.00D-06.
 No special actions if energy rises.
 SCF Done:  E(RHF) =  -267.444075320     A.U. after   14 cycles
            NFock= 14  Conv=0.31D-08     -V/T= 2.6169
 QCSCF skips out because SCF is already converged.
 ExpMin= 5.64D-02 ExpMax= 2.27D+03 ExpMxC= 3.41D+02 IAcc=3 IRadAn=         5 AccDes= 0.00D+00
 HarFok:  IExCor=  205 AccDes= 0.00D+00 IRadAn=         5 IDoV=-2 UseB2=F ITyADJ=14
 ICtDFT= 12500011 ScaDFX=  1.000000  1.000000  1.000000  1.000000
 Defaulting to unpruned grid for atomic number  80.
 Range of M.O.s used for correlation:     3    80
 NBasis=    80 NAE=    19 NBE=    19 NFC=     2 NFV=     0
 NROrb=     78 NOA=    17 NOB=    17 NVA=    61 NVB=    61
 Disk-based method using ON**2 memory for 17 occupieds at a time.
 Estimated scratch disk usage=    22299030 words.
 Actual    scratch disk usage=    20727702 words.
 GetIJB would need an additional   279944354 words of memory to use all  24 processors.
 JobTyp=1 Pass  1:  I=   3 to  19 NPSUse=  6 ParTrn=T ParDer=T DoDerP=T.
 (rs|ai) integrals will be sorted in core.
 Spin components of T(2) and E(2):
     alpha-alpha T2 =       0.3056211539D-01 E2=     -0.1102867495D+00
     alpha-beta  T2 =       0.1468100190D+00 E2=     -0.5076977810D+00
     beta-beta   T2 =       0.3056211539D-01 E2=     -0.1102867495D+00
 ANorm=    0.1099060621D+01
 E2 =    -0.7282712800D+00 EUMP2 =    -0.26817234659960D+03
          IDoAtm=1111111
          Differentiating once with respect to electric field.
                with respect to dipole field.
          Differentiating once with respect to nuclear coordinates.
 Keep R1 ints in memory in canonical form, NReq=16973416.
          There are     1 degrees of freedom in the 1st order CPHF.  IDoFFX=0 NUNeed=     1.
 LinEq1:  Iter=  0 NonCon=     1 RMS=9.13D-03 Max=1.41D-01 NDo=     1
 AX will form     1 AO Fock derivatives at one time.
 LinEq1:  Iter=  1 NonCon=     1 RMS=2.16D-03 Max=2.64D-02 NDo=     1
 LinEq1:  Iter=  2 NonCon=     1 RMS=7.73D-04 Max=9.46D-03 NDo=     1
 LinEq1:  Iter=  3 NonCon=     1 RMS=2.91D-04 Max=2.82D-03 NDo=     1
 LinEq1:  Iter=  4 NonCon=     1 RMS=8.19D-05 Max=1.02D-03 NDo=     1
 LinEq1:  Iter=  5 NonCon=     1 RMS=1.77D-05 Max=1.65D-04 NDo=     1
 LinEq1:  Iter=  6 NonCon=     1 RMS=6.64D-06 Max=5.73D-05 NDo=     1
 LinEq1:  Iter=  7 NonCon=     1 RMS=2.29D-06 Max=2.34D-05 NDo=     1
 LinEq1:  Iter=  8 NonCon=     1 RMS=3.92D-07 Max=2.99D-06 NDo=     1
 LinEq1:  Iter=  9 NonCon=     1 RMS=8.91D-08 Max=1.02D-06 NDo=     1
 LinEq1:  Iter= 10 NonCon=     1 RMS=2.85D-08 Max=2.79D-07 NDo=     1
 LinEq1:  Iter= 11 NonCon=     1 RMS=6.90D-09 Max=6.92D-08 NDo=     1
 LinEq1:  Iter= 12 NonCon=     1 RMS=2.40D-09 Max=2.19D-08 NDo=     1
 LinEq1:  Iter= 13 NonCon=     1 RMS=3.95D-10 Max=3.07D-09 NDo=     1
 LinEq1:  Iter= 14 NonCon=     0 RMS=7.95D-11 Max=7.49D-10 NDo=     1
 Linear equations converged to 1.000D-10 1.000D-09 after    14 iterations.
 End of Minotr F.D. properties file   721 does not exist.
 End of Minotr F.D. properties file   722 does not exist.
 End of Minotr F.D. properties file   788 does not exist.

 **********************************************************************

            Population analysis using the SCF density.

 **********************************************************************

 Orbital symmetries:
       Occupied  (A) (A) (A) (A) (A) (A) (A) (A) (A) (A) (A) (A)
                 (A) (A) (A) (A) (A) (A) (A)
       Virtual   (A) (A) (A) (A) (A) (A) (A) (A) (A) (A) (A) (A)
                 (A) (A) (A) (A) (A) (A) (A) (A) (A) (A) (A) (A)
                 (A) (A) (A) (A) (A) (A) (A) (A) (A) (A) (A) (A)
                 (A) (A) (A) (A) (A) (A) (A) (A) (A) (A) (A) (A)
                 (A) (A) (A) (A) (A) (A) (A) (A) (A) (A) (A) (A)
                 (A)
 The electronic state is 1-A.
 Alpha  occ. eigenvalues --  -20.50179 -11.23837  -5.09822  -3.08726  -3.08574
 Alpha  occ. eigenvalues --   -3.08494  -1.22294  -0.91682  -0.69021  -0.67500
 Alpha  occ. eigenvalues --   -0.67224  -0.65411  -0.65399  -0.56000  -0.54264
 Alpha  occ. eigenvalues --   -0.53121  -0.45581  -0.43191  -0.39674
 Alpha virt. eigenvalues --    0.09547   0.10365   0.11332   0.18470   0.26048
 Alpha virt. eigenvalues --    0.26106   0.26820   0.31293   0.34897   0.59995
 Alpha virt. eigenvalues --    0.60135   0.63850   0.64008   0.67113   0.77961
 Alpha virt. eigenvalues --    0.80209   0.84266   0.89704   0.91088   0.91138
 Alpha virt. eigenvalues --    0.97802   1.04120   1.04457   1.14169   1.22791
 Alpha virt. eigenvalues --    1.31792   1.34234   1.37769   1.51778   1.52943
 Alpha virt. eigenvalues --    1.70187   1.72858   1.78658   1.81160   1.84043
 Alpha virt. eigenvalues --    1.84258   1.84288   1.84341   1.86709   1.88565
 Alpha virt. eigenvalues --    1.97099   2.04409   2.04548   2.24589   2.26898
 Alpha virt. eigenvalues --    2.26983   2.51083   2.55341   2.72206   2.72724
 Alpha virt. eigenvalues --    2.72895   3.03456   3.11750   3.23931   3.23957
 Alpha virt. eigenvalues --    3.36487   3.37293   3.52034   4.14003  33.86672
 Alpha virt. eigenvalues --  121.75039
          Condensed to atoms (all electrons):
               1          2          3          4          5          6
     1  C    4.937345   0.345118   0.376115   0.380674   0.379089  -0.006743
     2  Hg   0.345118  18.938118  -0.037835  -0.043382  -0.042371   0.181522
     3  H    0.376115  -0.037835   0.612915  -0.012294  -0.012819   0.000193
     4  H    0.380674  -0.043382  -0.012294   0.616665  -0.013785   0.000125
     5  H    0.379089  -0.042371  -0.012819  -0.013785   0.617012   0.000136
     6  O   -0.006743   0.181522   0.000193   0.000125   0.000136   8.218575
     7  H    0.000811  -0.033322  -0.000004  -0.000093  -0.000050   0.296119
               7
     1  C    0.000811
     2  Hg  -0.033322
     3  H   -0.000004
     4  H   -0.000093
     5  H   -0.000050
     6  O    0.296119
     7  H    0.544967
 Mulliken charges:
               1
     1  C   -0.412409
     2  Hg   0.692152
     3  H    0.073730
     4  H    0.072091
     5  H    0.072789
     6  O   -0.689925
     7  H    0.191573
 Sum of Mulliken charges =   0.00000
 Mulliken charges with hydrogens summed into heavy atoms:
               1
     1  C   -0.193799
     2  Hg   0.692152
     6  O   -0.498352
 Electronic spatial extent (au):  <R**2>=            389.3878
 Charge=              0.0000 electrons
 Dipole moment (field-independent basis, Debye):
    X=             -2.1073    Y=              1.4289    Z=              0.0001  Tot=              2.5460
 Quadrupole moment (field-independent basis, Debye-Ang):
   XX=            -45.3058   YY=            -33.7377   ZZ=            -35.7453
   XY=              4.0825   XZ=              0.0029   YZ=              0.0013
 Traceless Quadrupole moment (field-independent basis, Debye-Ang):
   XX=             -7.0429   YY=              4.5253   ZZ=              2.5177
   XY=              4.0825   XZ=              0.0029   YZ=              0.0013
 Octapole moment (field-independent basis, Debye-Ang**2):
  XXX=              4.3207  YYY=             -0.3020  ZZZ=              0.5229  XYY=              6.9783
  XXY=              8.9529  XXZ=             -0.0136  XZZ=              2.8212  YZZ=              0.0089
  YYZ=             -0.5154  XYZ=             -0.0158
 Hexadecapole moment (field-independent basis, Debye-Ang**3):
 XXXX=           -467.5587 YYYY=            -42.2022 ZZZZ=            -42.2177 XXXY=             24.5495
 XXXZ=              0.0475 YYYX=              5.7585 YYYZ=             -0.0923 ZZZX=             -1.3507
 ZZZY=              0.0308 XXYY=            -68.9372 XXZZ=            -77.9240 YYZZ=            -14.2609
 XXYZ=              0.0782 YYXZ=              1.3468 ZZXY=             -0.2628
 N-N= 1.129889227196D+02 E-N=-8.172742971920D+02  KE= 1.654081652288D+02
 PrsmSu:  requested number of processors reduced to:  13 ShMem   1 Linda.
   1 Symmetry operations used in ECPInt.
 ECPInt:  NShTT=     666 NPrTT=    2067 LenC2=     666 LenP2D=    1822.
 LDataN:  DoStor=T MaxTD1= 9 Len=  602
 Calling FoFJK, ICntrl=  10002127 FMM=F ISym2X=0 I1Cent= 0 IOpClX= 0 NMat=1 NMatS=1 NMatT=0.
 ***** Axes restored to original set *****
 -------------------------------------------------------------------
 Center     Atomic                   Forces (Hartrees/Bohr)
 Number     Number              X              Y              Z
 -------------------------------------------------------------------
      1        6           0.005986357    0.002702761   -0.000371083
      2       80          -0.018291402   -0.004303641    0.000117511
      3        1           0.002769141   -0.006895130   -0.002268010
      4        1           0.002336706    0.005910297   -0.004727815
      5        1           0.002434216    0.001949706    0.007276889
      6        8           0.008718932   -0.019517025   -0.000020568
      7        1          -0.003953950    0.020153032   -0.000006925
 -------------------------------------------------------------------
 Cartesian Forces:  Max     0.020153032 RMS     0.008340610

 GradGradGradGradGradGradGradGradGradGradGradGradGradGradGradGradGradGrad
 Berny optimization.
 FormGI is forming the generalized inverse of G from B-inverse, IUseBI=4.
 Internal  Forces:  Max     0.020243679 RMS     0.007071996
 Search for a local minimum.
 Step number   1 out of a maximum of   28
 All quantities printed in internal units (Hartrees-Bohrs-Radians)
 Mixed Optimization -- RFO/linear search
 Second derivative matrix not updated -- first step.
 The second derivative matrix:
                          R1        R2        R3        R4        R5
           R1           0.15481
           R2           0.00000   0.32664
           R3           0.00000   0.00000   0.32665
           R4           0.00000   0.00000   0.00000   0.32665
           R5           0.00000   0.00000   0.00000   0.00000   0.20663
           R6           0.00000   0.00000   0.00000   0.00000   0.00000
           A1           0.00000   0.00000   0.00000   0.00000   0.00000
           A2           0.00000   0.00000   0.00000   0.00000   0.00000
           A3           0.00000   0.00000   0.00000   0.00000   0.00000
           A4           0.00000   0.00000   0.00000   0.00000   0.00000
           A5           0.00000   0.00000   0.00000   0.00000   0.00000
           A6           0.00000   0.00000   0.00000   0.00000   0.00000
           A7           0.00000   0.00000   0.00000   0.00000   0.00000
           A8           0.00000   0.00000   0.00000   0.00000   0.00000
           A9           0.00000   0.00000   0.00000   0.00000   0.00000
           D1           0.00000   0.00000   0.00000   0.00000   0.00000
           D2           0.00000   0.00000   0.00000   0.00000   0.00000
           D3           0.00000   0.00000   0.00000   0.00000   0.00000
                          R6        A1        A2        A3        A4
           R6           0.49447
           A1           0.00000   0.16000
           A2           0.00000   0.00000   0.16000
           A3           0.00000   0.00000   0.00000   0.16000
           A4           0.00000   0.00000   0.00000   0.00000   0.16000
           A5           0.00000   0.00000   0.00000   0.00000   0.00000
           A6           0.00000   0.00000   0.00000   0.00000   0.00000
           A7           0.00000   0.00000   0.00000   0.00000   0.00000
           A8           0.00000   0.00000   0.00000   0.00000   0.00000
           A9           0.00000   0.00000   0.00000   0.00000   0.00000
           D1           0.00000   0.00000   0.00000   0.00000   0.00000
           D2           0.00000   0.00000   0.00000   0.00000   0.00000
           D3           0.00000   0.00000   0.00000   0.00000   0.00000
                          A5        A6        A7        A8        A9
           A5           0.16000
           A6           0.00000   0.16000
           A7           0.00000   0.00000   0.16000
           A8           0.00000   0.00000   0.00000   0.00230
           A9           0.00000   0.00000   0.00000   0.00000   0.00230
           D1           0.00000   0.00000   0.00000   0.00000   0.00000
           D2           0.00000   0.00000   0.00000   0.00000   0.00000
           D3           0.00000   0.00000   0.00000   0.00000   0.00000
                          D1        D2        D3
           D1           0.00230
           D2           0.00000   0.00230
           D3           0.00000   0.00000   0.00230
 ITU=  0
     Eigenvalues ---    0.00230   0.00230   0.00230   0.09961   0.10098
     Eigenvalues ---    0.15481   0.16000   0.16000   0.16000   0.16000
     Eigenvalues ---    0.20663   0.32664   0.32665   0.32665   0.49447
 RFO step:  Lambda=-7.53792925D-03 EMin= 2.30000000D-03
 Linear search not attempted -- first point.
 Maximum step size (   0.300) exceeded in Quadratic search.
    -- Step size scaled by   0.441
 Iteration  1 RMS(Cart)=  0.11714963 RMS(Int)=  0.02411499
 Iteration  2 RMS(Cart)=  0.05277231 RMS(Int)=  0.00220624
 Iteration  3 RMS(Cart)=  0.00266933 RMS(Int)=  0.00143575
 Iteration  4 RMS(Cart)=  0.00000071 RMS(Int)=  0.00143575
 Variable       Old X    -DE/DX   Delta X   Delta X   Delta X     New X
                                 (Linear)    (Quad)   (Total)
    R1        3.95643  -0.01385   0.00000  -0.03762  -0.03759   3.91885
    R2        2.09645  -0.00774   0.00000  -0.01022  -0.01022   2.08624
    R3        2.09644  -0.00791   0.00000  -0.01044  -0.01044   2.08600
    R4        2.09643  -0.00792   0.00000  -0.01044  -0.01044   2.08598
    R5        3.75113   0.00481   0.00000   0.00990   0.00986   3.76100
    R6        1.87127  -0.02024   0.00000  -0.01778  -0.01778   1.85349
    A1        1.91053   0.00128   0.00000   0.00378   0.00508   1.91561
    A2        1.91047  -0.00095   0.00000  -0.00292  -0.00310   1.90738
    A3        1.91050  -0.00005   0.00000  -0.00012  -0.00152   1.90898
    A4        1.91076  -0.00017   0.00000  -0.00046   0.00211   1.91287
    A5        1.91078   0.00011   0.00000   0.00111   0.00091   1.91168
    A6        1.91076  -0.00022   0.00000  -0.00139  -0.00351   1.90726
    A7        1.82351   0.00647   0.00000   0.01704   0.01704   1.84055
    A8        3.14112   0.00673   0.00000   0.29579   0.29498   3.43610
    A9        3.14159  -0.00005   0.00000  -0.00178  -0.00187   3.13972
    D1        2.82291   0.00006   0.00000   0.01455   0.01219   2.83510
    D2        0.72849   0.00047   0.00000   0.03228   0.03597   0.76446
    D3       -1.36575  -0.00055   0.00000  -0.04774  -0.04931  -1.41506
         Item               Value     Threshold  Converged?
 Maximum Force            0.020244     0.000450     NO 
 RMS     Force            0.007072     0.000300     NO 
 Maximum Displacement     0.527301     0.001800     NO 
 RMS     Displacement     0.166234     0.001200     NO 
 Predicted change in Energy=-2.939879D-03
 GradGradGradGradGradGradGradGradGradGradGradGradGradGradGradGradGradGrad

                          Input orientation:                          
 ---------------------------------------------------------------------
 Center     Atomic      Atomic             Coordinates (Angstroms)
 Number     Number       Type             X           Y           Z
 ---------------------------------------------------------------------
      1          6           0       -9.577864    2.775018    0.000648
      2         80           0       -7.504488    2.734824    0.000523
      3          1           0       -9.931812    3.769105    0.325149
      4          1           0       -9.957423    2.002900    0.692231
      5          1           0       -9.948278    2.565783   -1.017935
      6          8           0       -5.589104    3.275501   -0.000870
      7          1           0       -5.080731    2.436708    0.000303
 ---------------------------------------------------------------------
                    Distance matrix (angstroms):
                    1          2          3          4          5
     1  C    0.000000
     2  Hg   2.073765   0.000000
     3  H    1.103988   2.658386   0.000000
     4  H    1.103865   2.651615   1.804130   0.000000
     5  H    1.103856   2.652912   1.803366   1.800441   0.000000
     6  O    4.020037   1.990234   4.382812   4.602403   4.532165
     7  H    4.509840   2.442022   5.041209   4.944600   4.974583
                    6          7
     6  O    0.000000
     7  H    0.980825   0.000000
 Stoichiometry    CH4HgO
 Framework group  C1[X(CH4HgO)]
 Deg. of freedom    15
 Full point group                 C1      NOp   1
 Largest Abelian subgroup         C1      NOp   1
 Largest concise Abelian subgroup C1      NOp   1
                         Standard orientation:                         
 ---------------------------------------------------------------------
 Center     Atomic      Atomic             Coordinates (Angstroms)
 Number     Number       Type             X           Y           Z
 ---------------------------------------------------------------------
      1          6           0       -2.044840   -0.180549    0.000048
      2         80           0        0.016449    0.046591   -0.000079
      3          1           0       -2.307714   -1.202135   -0.325604
      4          1           0       -2.492704    0.554988   -0.690545
      5          1           0       -2.432366   -0.006811    1.018937
      6          8           0        1.972811   -0.319028    0.000382
      7          1           0        2.403413    0.562221    0.000150
 ---------------------------------------------------------------------
 Rotational constants (GHZ):          82.8313745           3.6765494           3.6022888
 Standard basis: def2SVP (5D, 7F)
 There are    87 symmetry adapted cartesian basis functions of A   symmetry.
 There are    80 symmetry adapted basis functions of A   symmetry.
    80 basis functions,   143 primitive gaussians,    87 cartesian basis functions
    19 alpha electrons       19 beta electrons
       nuclear repulsion energy       113.4452309594 Hartrees.
 NAtoms=    7 NActive=    7 NUniq=    7 SFac= 1.00D+00 NAtFMM=   60 NAOKFM=F Big=F
 Integral buffers will be    131072 words long.
 Raffenetti 1 integral format.
 Two-electron integral symmetry is turned on.
 One-electron integrals computed using PRISM.
 PrsmSu:  requested number of processors reduced to:  13 ShMem   1 Linda.
   1 Symmetry operations used in ECPInt.
 ECPInt:  NShTT=     666 NPrTT=    2067 LenC2=     666 LenP2D=    1823.
 LDataN:  DoStor=T MaxTD1= 8 Len=  415
 NBasis=    80 RedAO= T EigKep=  7.63D-03  NBF=    80
 NBsUse=    80 1.00D-06 EigRej= -1.00D+00 NBFU=    80
 Initial guess from the checkpoint file:  "ch3hgoh_gas_apfd_def2svp.chk"
 B after Tr=    -0.000000   -0.000000    0.000000
         Rot=    0.999999   -0.000155   -0.000013   -0.001214 Ang=  -0.14 deg.
 ExpMin= 5.64D-02 ExpMax= 2.27D+03 ExpMxC= 3.41D+02 IAcc=2 IRadAn=         4 AccDes= 0.00D+00
 Harris functional with IExCor=  205 and IRadAn=       4 diagonalized for initial guess.
 HarFok:  IExCor=  205 AccDes= 0.00D+00 IRadAn=         4 IDoV= 1 UseB2=F ITyADJ=14
 ICtDFT=  3500011 ScaDFX=  1.000000  1.000000  1.000000  1.000000
 Defaulting to unpruned grid for atomic number  80.
 FoFCou: FMM=F IPFlag=           0 FMFlag=      100000 FMFlg1=           0
         NFxFlg=           0 DoJE=T BraDBF=F KetDBF=T FulRan=T
         wScrn=  0.000000 ICntrl=       500 IOpCl=  0 I1Cent=   200000004 NGrid=           0
         NMat0=    1 NMatS0=      1 NMatT0=    0 NMatD0=    1 NMtDS0=    0 NMtDT0=    0
 Petite list used in FoFCou.
 Keep R1 ints in memory in canonical form, NReq=16971324.
 Requested convergence on RMS density matrix=1.00D-08 within  32 cycles.
 Requested convergence on MAX density matrix=1.00D-06.
 Requested convergence on             energy=1.00D-06.
 No special actions if energy rises.
 SCF Done:  E(RHF) =  -267.440543547     A.U. after   13 cycles
            NFock= 13  Conv=0.70D-08     -V/T= 2.6162
 QCSCF skips out because SCF is already converged.
 ExpMin= 5.64D-02 ExpMax= 2.27D+03 ExpMxC= 3.41D+02 IAcc=3 IRadAn=         5 AccDes= 0.00D+00
 HarFok:  IExCor=  205 AccDes= 0.00D+00 IRadAn=         5 IDoV=-2 UseB2=F ITyADJ=14
 ICtDFT= 12500011 ScaDFX=  1.000000  1.000000  1.000000  1.000000
 Defaulting to unpruned grid for atomic number  80.
 Range of M.O.s used for correlation:     3    80
 NBasis=    80 NAE=    19 NBE=    19 NFC=     2 NFV=     0
 NROrb=     78 NOA=    17 NOB=    17 NVA=    61 NVB=    61
 Disk-based method using ON**2 memory for 17 occupieds at a time.
 Estimated scratch disk usage=    22324932 words.
 Actual    scratch disk usage=    20773572 words.
 GetIJB would need an additional   279944582 words of memory to use all  24 processors.
 JobTyp=1 Pass  1:  I=   3 to  19 NPSUse=  6 ParTrn=T ParDer=T DoDerP=T.
 (rs|ai) integrals will be sorted in core.
 Spin components of T(2) and E(2):
     alpha-alpha T2 =       0.3062779537D-01 E2=     -0.1104741440D+00
     alpha-beta  T2 =       0.1468589685D+00 E2=     -0.5079190855D+00
     beta-beta   T2 =       0.3062779537D-01 E2=     -0.1104741440D+00
 ANorm=    0.1099142647D+01
 E2 =    -0.7288673734D+00 EUMP2 =    -0.26816941092030D+03
          IDoAtm=1111111
          Differentiating once with respect to electric field.
                with respect to dipole field.
          Differentiating once with respect to nuclear coordinates.
 Keep R1 ints in memory in canonical form, NReq=16973650.
          There are     1 degrees of freedom in the 1st order CPHF.  IDoFFX=0 NUNeed=     1.
 LinEq1:  Iter=  0 NonCon=     1 RMS=9.26D-03 Max=1.50D-01 NDo=     1
 AX will form     1 AO Fock derivatives at one time.
 LinEq1:  Iter=  1 NonCon=     1 RMS=2.20D-03 Max=2.72D-02 NDo=     1
 LinEq1:  Iter=  2 NonCon=     1 RMS=7.96D-04 Max=8.68D-03 NDo=     1
 LinEq1:  Iter=  3 NonCon=     1 RMS=3.02D-04 Max=2.61D-03 NDo=     1
 LinEq1:  Iter=  4 NonCon=     1 RMS=8.62D-05 Max=9.79D-04 NDo=     1
 LinEq1:  Iter=  5 NonCon=     1 RMS=1.86D-05 Max=1.90D-04 NDo=     1
 LinEq1:  Iter=  6 NonCon=     1 RMS=6.80D-06 Max=5.57D-05 NDo=     1
 LinEq1:  Iter=  7 NonCon=     1 RMS=2.50D-06 Max=2.88D-05 NDo=     1
 LinEq1:  Iter=  8 NonCon=     1 RMS=4.75D-07 Max=3.41D-06 NDo=     1
 LinEq1:  Iter=  9 NonCon=     1 RMS=1.77D-07 Max=2.13D-06 NDo=     1
 LinEq1:  Iter= 10 NonCon=     1 RMS=3.78D-08 Max=2.49D-07 NDo=     1
 LinEq1:  Iter= 11 NonCon=     1 RMS=8.36D-09 Max=5.71D-08 NDo=     1
 LinEq1:  Iter= 12 NonCon=     1 RMS=2.53D-09 Max=1.99D-08 NDo=     1
 LinEq1:  Iter= 13 NonCon=     1 RMS=4.40D-10 Max=3.40D-09 NDo=     1
 LinEq1:  Iter= 14 NonCon=     0 RMS=9.10D-11 Max=8.54D-10 NDo=     1
 Linear equations converged to 1.000D-10 1.000D-09 after    14 iterations.
 End of Minotr F.D. properties file   721 does not exist.
 End of Minotr F.D. properties file   722 does not exist.
 End of Minotr F.D. properties file   788 does not exist.
 PrsmSu:  requested number of processors reduced to:  13 ShMem   1 Linda.
   1 Symmetry operations used in ECPInt.
 ECPInt:  NShTT=     666 NPrTT=    2067 LenC2=     666 LenP2D=    1823.
 LDataN:  DoStor=T MaxTD1= 9 Len=  602
 Calling FoFJK, ICntrl=  10002127 FMM=F ISym2X=0 I1Cent= 0 IOpClX= 0 NMat=1 NMatS=1 NMatT=0.
 ***** Axes restored to original set *****
 -------------------------------------------------------------------
 Center     Atomic                   Forces (Hartrees/Bohr)
 Number     Number              X              Y              Z
 -------------------------------------------------------------------
      1        6           0.002179027   -0.012843510   -0.000581839
      2       80          -0.014147787    0.021344646    0.000178314
      3        1           0.004299433   -0.003185962   -0.000754867
      4        1          -0.001086638    0.003748122   -0.002923713
      5        1           0.000559382    0.000962557    0.004123117
      6        8           0.008666294   -0.022708782   -0.000054590
      7        1          -0.000469710    0.012682928    0.000013578
 -------------------------------------------------------------------
 Cartesian Forces:  Max     0.022708782 RMS     0.008861162

 GradGradGradGradGradGradGradGradGradGradGradGradGradGradGradGradGradGrad
 Berny optimization.
 Using GEDIIS/GDIIS optimizer.
 FormGI is forming the generalized inverse of G from B-inverse, IUseBI=4.
 Internal  Forces:  Max     0.032633369 RMS     0.009257184
 Search for a local minimum.
 Step number   2 out of a maximum of   28
 All quantities printed in internal units (Hartrees-Bohrs-Radians)
 Mixed Optimization -- RFO/linear search
 Update second derivatives using D2CorX and points    2    1
 DE=  2.94D-03 DEPred=-2.94D-03 R=-9.99D-01
 Trust test=-9.99D-01 RLast= 3.06D-01 DXMaxT set to 1.50D-01
 The second derivative matrix:
                          R1        R2        R3        R4        R5
           R1           0.11529
           R2          -0.02336   0.31295
           R3          -0.02356  -0.01386   0.31264
           R4          -0.02364  -0.01390  -0.01405   0.31257
           R5           0.01574   0.00899   0.00920   0.00921   0.20121
           R6          -0.06122  -0.03594  -0.03636  -0.03645   0.02371
           A1           0.00082   0.00125   0.00094   0.00100  -0.00243
           A2           0.00046  -0.00035  -0.00009  -0.00014   0.00153
           A3          -0.00039  -0.00044  -0.00035  -0.00037   0.00072
           A4           0.00203   0.00124   0.00124   0.00124  -0.00093
           A5           0.00035   0.00031   0.00027   0.00028  -0.00042
           A6          -0.00326  -0.00202  -0.00199  -0.00201   0.00155
           A7           0.02382   0.01321   0.01369   0.01367  -0.00711
           A8          -0.01923  -0.00747  -0.00917  -0.00889  -0.00303
           A9          -0.00000  -0.00001  -0.00000  -0.00000   0.00001
           D1          -0.00018  -0.00005  -0.00007  -0.00007  -0.00009
           D2          -0.00053  -0.00013  -0.00021  -0.00020  -0.00028
           D3           0.00065   0.00015   0.00025   0.00023   0.00038
                          R6        A1        A2        A3        A4
           R6           0.40017
           A1           0.00293   0.16520
           A2          -0.00064  -0.00425   0.16345
           A3          -0.00105  -0.00139   0.00114   0.16037
           A4           0.00324   0.00026  -0.00027  -0.00006   0.15991
           A5           0.00076   0.00070  -0.00058  -0.00019   0.00002
           A6          -0.00524  -0.00055   0.00054   0.00013   0.00013
           A7           0.03502  -0.00637   0.00451   0.00181  -0.00156
           A8          -0.02136   0.02685  -0.02130  -0.00729   0.00250
           A9          -0.00001  -0.00003   0.00002   0.00001  -0.00000
           D1          -0.00015   0.00041  -0.00033  -0.00011   0.00003
           D2          -0.00043   0.00122  -0.00098  -0.00033   0.00010
           D3           0.00050  -0.00159   0.00127   0.00043  -0.00012
                          A5        A6        A7        A8        A9
           A5           0.16009
           A6          -0.00006   0.15980
           A7          -0.00101   0.00266   0.15227
           A8           0.00377  -0.00471  -0.01823   0.12706
           A9          -0.00000   0.00000   0.00004  -0.00015   0.00230
           D1           0.00006  -0.00006  -0.00035   0.00200  -0.00000
           D2           0.00017  -0.00019  -0.00105   0.00588  -0.00001
           D3          -0.00022   0.00024   0.00138  -0.00767   0.00001
                          D1        D2        D3
           D1           0.00233
           D2           0.00009   0.00257
           D3          -0.00012  -0.00036   0.00277
 ITU= -1  0
 Use linear search instead of GDIIS.
     Eigenvalues ---    0.00230   0.00230   0.05576   0.08681   0.10297
     Eigenvalues ---    0.12369   0.15933   0.16000   0.16000   0.19444
     Eigenvalues ---    0.20368   0.28825   0.32665   0.32667   0.43616
 RFO step:  Lambda=-7.77998768D-03 EMin= 2.29995308D-03
 Quartic linear search produced a step of -0.73858.
 Maximum step size (   0.150) exceeded in Quadratic search.
    -- Step size scaled by   0.456
 Iteration  1 RMS(Cart)=  0.10665330 RMS(Int)=  0.01437041
 Iteration  2 RMS(Cart)=  0.03139400 RMS(Int)=  0.00050263
 Iteration  3 RMS(Cart)=  0.00077896 RMS(Int)=  0.00015724
 Iteration  4 RMS(Cart)=  0.00000005 RMS(Int)=  0.00015724
 Variable       Old X    -DE/DX   Delta X   Delta X   Delta X     New X
                                 (Linear)    (Quad)   (Total)
    R1        3.91885  -0.00619   0.02776  -0.10788  -0.08013   3.83872
    R2        2.08624  -0.00447   0.00755  -0.03023  -0.02268   2.06355
    R3        2.08600  -0.00408   0.00771  -0.03070  -0.02299   2.06301
    R4        2.08598  -0.00417   0.00771  -0.03076  -0.02304   2.06294
    R5        3.76100   0.00519  -0.00728   0.03032   0.02304   3.78403
    R6        1.85349  -0.01109   0.01313  -0.05277  -0.03963   1.81386
    A1        1.91561  -0.00737  -0.00375   0.00660   0.00272   1.91833
    A2        1.90738   0.00587   0.00229  -0.00338  -0.00096   1.90642
    A3        1.90898   0.00231   0.00112  -0.00098   0.00015   1.90913
    A4        1.91287  -0.00105  -0.00156   0.00243   0.00087   1.91374
    A5        1.91168  -0.00112  -0.00067   0.00046  -0.00047   1.91122
    A6        1.90726   0.00142   0.00259  -0.00520  -0.00235   1.90491
    A7        1.84055   0.01144  -0.01259   0.05515   0.04257   1.88312
    A8        3.43610  -0.03263  -0.21787  -0.03489  -0.25265   3.18345
    A9        3.13972  -0.00000   0.00138  -0.00216  -0.00079   3.13893
    D1        2.83510  -0.00057  -0.00901  -0.00055  -0.00977   2.82534
    D2        0.76446  -0.00140  -0.02656  -0.01028  -0.03706   0.72739
    D3       -1.41506   0.00189   0.03642   0.00963   0.04647  -1.36859
         Item               Value     Threshold  Converged?
 Maximum Force            0.032633     0.000450     NO 
 RMS     Force            0.009257     0.000300     NO 
 Maximum Displacement     0.426524     0.001800     NO 
 RMS     Displacement     0.135084     0.001200     NO 
 Predicted change in Energy=-3.190831D-03
 GradGradGradGradGradGradGradGradGradGradGradGradGradGradGradGradGradGrad

                          Input orientation:                          
 ---------------------------------------------------------------------
 Center     Atomic      Atomic             Coordinates (Angstroms)
 Number     Number       Type             X           Y           Z
 ---------------------------------------------------------------------
      1          6           0       -9.564814    2.785185    0.000980
      2         80           0       -7.541031    2.960531    0.000924
      3          1           0      -10.019522    3.724898    0.321311
      4          1           0       -9.856351    1.984790    0.683751
      5          1           0       -9.907223    2.539203   -1.005983
      6          8           0       -5.555063    3.216707   -0.001019
      7          1           0       -5.145698    2.348527    0.000087
 ---------------------------------------------------------------------
                    Distance matrix (angstroms):
                    1          2          3          4          5
     1  C    0.000000
     2  Hg   2.031365   0.000000
     3  H    1.091985   2.613392   0.000000
     4  H    1.091697   2.603657   1.784927   0.000000
     5  H    1.091662   2.605810   1.783309   1.779091   0.000000
     6  O    4.032905   2.002423   4.504836   4.526324   4.517772
     7  H    4.440637   2.472280   5.074617   4.773883   4.870385
                    6          7
     6  O    0.000000
     7  H    0.959853   0.000000
 Stoichiometry    CH4HgO
 Framework group  C1[X(CH4HgO)]
 Deg. of freedom    15
 Full point group                 C1      NOp   1
 Largest Abelian subgroup         C1      NOp   1
 Largest concise Abelian subgroup C1      NOp   1
                         Standard orientation:                         
 ---------------------------------------------------------------------
 Center     Atomic      Atomic             Coordinates (Angstroms)
 Number     Number       Type             X           Y           Z
 ---------------------------------------------------------------------
      1          6           0       -2.020742    0.012741    0.000400
      2         80           0        0.010572   -0.001692   -0.000202
      3          1           0       -2.399666   -0.960649   -0.317973
      4          1           0       -2.375015    0.786232   -0.683708
      5          1           0       -2.381227    0.232710    1.007072
      6          8           0        2.010595   -0.099693    0.001252
      7          1           0        2.349878    0.798191   -0.001657
 ---------------------------------------------------------------------
 Rotational constants (GHZ):         126.9611807           3.6634290           3.6425635
 Standard basis: def2SVP (5D, 7F)
 There are    87 symmetry adapted cartesian basis functions of A   symmetry.
 There are    80 symmetry adapted basis functions of A   symmetry.
    80 basis functions,   143 primitive gaussians,    87 cartesian basis functions
    19 alpha electrons       19 beta electrons
       nuclear repulsion energy       114.1751271605 Hartrees.
 NAtoms=    7 NActive=    7 NUniq=    7 SFac= 1.00D+00 NAtFMM=   60 NAOKFM=F Big=F
 Integral buffers will be    131072 words long.
 Raffenetti 1 integral format.
 Two-electron integral symmetry is turned on.
 One-electron integrals computed using PRISM.
 PrsmSu:  requested number of processors reduced to:  13 ShMem   1 Linda.
   1 Symmetry operations used in ECPInt.
 ECPInt:  NShTT=     666 NPrTT=    2067 LenC2=     666 LenP2D=    1828.
 LDataN:  DoStor=T MaxTD1= 8 Len=  415
 NBasis=    80 RedAO= T EigKep=  7.12D-03  NBF=    80
 NBsUse=    80 1.00D-06 EigRej= -1.00D+00 NBFU=    80
 Lowest energy guess from the checkpoint file:  "ch3hgoh_gas_apfd_def2svp.chk"
 B after Tr=    -0.000000   -0.000000   -0.000000
         Rot=    0.999998    0.002089   -0.000013    0.000756 Ang=   0.25 deg.
 B after Tr=     0.000000    0.000000   -0.000000
         Rot=    1.000000   -0.000000    0.000000   -0.000000 Ang=   0.00 deg.
 Keep R1 ints in memory in canonical form, NReq=16971766.
 Requested convergence on RMS density matrix=1.00D-08 within  32 cycles.
 Requested convergence on MAX density matrix=1.00D-06.
 Requested convergence on             energy=1.00D-06.
 No special actions if energy rises.
 SCF Done:  E(RHF) =  -267.446330536     A.U. after   11 cycles
            NFock= 11  Conv=0.97D-08     -V/T= 2.6155
 QCSCF skips out because SCF is already converged.
 ExpMin= 5.64D-02 ExpMax= 2.27D+03 ExpMxC= 3.41D+02 IAcc=3 IRadAn=         5 AccDes= 0.00D+00
 HarFok:  IExCor=  205 AccDes= 0.00D+00 IRadAn=         5 IDoV=-2 UseB2=F ITyADJ=14
 ICtDFT= 12500011 ScaDFX=  1.000000  1.000000  1.000000  1.000000
 Defaulting to unpruned grid for atomic number  80.
 Range of M.O.s used for correlation:     3    80
 NBasis=    80 NAE=    19 NBE=    19 NFC=     2 NFV=     0
 NROrb=     78 NOA=    17 NOB=    17 NVA=    61 NVB=    61
 Disk-based method using ON**2 memory for 17 occupieds at a time.
 Estimated scratch disk usage=    22299030 words.
 Actual    scratch disk usage=    20727702 words.
 GetIJB would need an additional   279944552 words of memory to use all  24 processors.
 JobTyp=1 Pass  1:  I=   3 to  19 NPSUse=  6 ParTrn=T ParDer=T DoDerP=T.
 (rs|ai) integrals will be sorted in core.
 Spin components of T(2) and E(2):
     alpha-alpha T2 =       0.3037031630D-01 E2=     -0.1104673848D+00
     alpha-beta  T2 =       0.1447654716D+00 E2=     -0.5066377727D+00
     beta-beta   T2 =       0.3037031630D-01 E2=     -0.1104673848D+00
 ANorm=    0.1097955420D+01
 E2 =    -0.7275725423D+00 EUMP2 =    -0.26817390307802D+03
          IDoAtm=1111111
          Differentiating once with respect to electric field.
                with respect to dipole field.
          Differentiating once with respect to nuclear coordinates.
 Keep R1 ints in memory in canonical form, NReq=16973611.
          There are     1 degrees of freedom in the 1st order CPHF.  IDoFFX=0 NUNeed=     1.
 LinEq1:  Iter=  0 NonCon=     1 RMS=8.95D-03 Max=1.26D-01 NDo=     1
 AX will form     1 AO Fock derivatives at one time.
 LinEq1:  Iter=  1 NonCon=     1 RMS=2.06D-03 Max=2.48D-02 NDo=     1
 LinEq1:  Iter=  2 NonCon=     1 RMS=7.25D-04 Max=8.67D-03 NDo=     1
 LinEq1:  Iter=  3 NonCon=     1 RMS=2.71D-04 Max=2.84D-03 NDo=     1
 LinEq1:  Iter=  4 NonCon=     1 RMS=7.67D-05 Max=8.04D-04 NDo=     1
 LinEq1:  Iter=  5 NonCon=     1 RMS=1.59D-05 Max=1.50D-04 NDo=     1
 LinEq1:  Iter=  6 NonCon=     1 RMS=5.84D-06 Max=5.32D-05 NDo=     1
 LinEq1:  Iter=  7 NonCon=     1 RMS=2.15D-06 Max=2.18D-05 NDo=     1
 LinEq1:  Iter=  8 NonCon=     1 RMS=3.79D-07 Max=2.81D-06 NDo=     1
 LinEq1:  Iter=  9 NonCon=     1 RMS=1.00D-07 Max=1.04D-06 NDo=     1
 LinEq1:  Iter= 10 NonCon=     1 RMS=2.91D-08 Max=3.16D-07 NDo=     1
 LinEq1:  Iter= 11 NonCon=     1 RMS=8.08D-09 Max=8.43D-08 NDo=     1
 LinEq1:  Iter= 12 NonCon=     1 RMS=2.52D-09 Max=1.95D-08 NDo=     1
 LinEq1:  Iter= 13 NonCon=     1 RMS=4.08D-10 Max=3.43D-09 NDo=     1
 LinEq1:  Iter= 14 NonCon=     0 RMS=8.30D-11 Max=8.17D-10 NDo=     1
 Linear equations converged to 1.000D-10 1.000D-09 after    14 iterations.
 End of Minotr F.D. properties file   721 does not exist.
 End of Minotr F.D. properties file   722 does not exist.
 End of Minotr F.D. properties file   788 does not exist.
 PrsmSu:  requested number of processors reduced to:  13 ShMem   1 Linda.
   1 Symmetry operations used in ECPInt.
 ECPInt:  NShTT=     666 NPrTT=    2067 LenC2=     666 LenP2D=    1828.
 LDataN:  DoStor=T MaxTD1= 9 Len=  602
 Calling FoFJK, ICntrl=  10002127 FMM=F ISym2X=0 I1Cent= 0 IOpClX= 0 NMat=1 NMatS=1 NMatT=0.
 ***** Axes restored to original set *****
 -------------------------------------------------------------------
 Center     Atomic                   Forces (Hartrees/Bohr)
 Number     Number              X              Y              Z
 -------------------------------------------------------------------
      1        6           0.000960612   -0.000266713   -0.000602388
      2       80           0.009624085    0.000897905    0.000105681
      3        1          -0.002336142    0.003040545    0.001312835
      4        1          -0.002093404   -0.002511231    0.002937055
      5        1          -0.002191081   -0.000538558   -0.003749221
      6        8          -0.008498008    0.006211530   -0.000034611
      7        1           0.004533937   -0.006833479    0.000030649
 -------------------------------------------------------------------
 Cartesian Forces:  Max     0.009624085 RMS     0.003950528

 GradGradGradGradGradGradGradGradGradGradGradGradGradGradGradGradGradGrad
 Berny optimization.
 Using GEDIIS/GDIIS optimizer.
 FormGI is forming the generalized inverse of G from B-inverse, IUseBI=4.
 Internal  Forces:  Max     0.008114578 RMS     0.003153711
 Search for a local minimum.
 Step number   3 out of a maximum of   28
 All quantities printed in internal units (Hartrees-Bohrs-Radians)
 Mixed Optimization -- RFO/linear search
 Update second derivatives using D2CorX and points    2    1    3
 DE= -1.56D-03 DEPred=-3.19D-03 R= 4.88D-01
 Trust test= 4.88D-01 RLast= 1.64D-01 DXMaxT set to 1.50D-01
 The second derivative matrix:
                          R1        R2        R3        R4        R5
           R1           0.16185
           R2           0.00526   0.33049
           R3           0.00604   0.00431   0.33145
           R4           0.00614   0.00438   0.00487   0.33159
           R5          -0.00912  -0.00627  -0.00660  -0.00668   0.21448
           R6           0.00441   0.00416   0.00526   0.00539  -0.01121
           A1           0.00387   0.00289   0.00276   0.00283  -0.00394
           A2           0.00302   0.00146   0.00166   0.00162   0.00004
           A3           0.00267   0.00158   0.00167   0.00166  -0.00099
           A4          -0.00228  -0.00152  -0.00156  -0.00158   0.00144
           A5          -0.00289  -0.00179  -0.00185  -0.00185   0.00136
           A6          -0.00442  -0.00266  -0.00270  -0.00271   0.00213
           A7           0.01460   0.00801   0.00807   0.00803  -0.00244
           A8          -0.00542   0.00017  -0.00083  -0.00053  -0.00996
           A9           0.00002   0.00001   0.00001   0.00001   0.00000
           D1          -0.00040  -0.00021  -0.00023  -0.00022   0.00004
           D2           0.00114   0.00084   0.00083   0.00084  -0.00114
           D3          -0.00081  -0.00067  -0.00064  -0.00066   0.00112
                          R6        A1        A2        A3        A4
           R6           0.49148
           A1           0.00600   0.16415
           A2           0.00423  -0.00280   0.16227
           A3           0.00398  -0.00047   0.00057   0.16016
           A4          -0.00344  -0.00064   0.00013   0.00001   0.16001
           A5          -0.00434  -0.00006  -0.00020  -0.00009   0.00006
           A6          -0.00648  -0.00022   0.00005  -0.00018   0.00044
           A7           0.02446  -0.00450   0.00146  -0.00022   0.00051
           A8          -0.00631   0.02331  -0.01596  -0.00381  -0.00098
           A9           0.00002  -0.00002   0.00002   0.00000   0.00000
           D1          -0.00059   0.00027  -0.00021  -0.00005  -0.00001
           D2           0.00167   0.00108  -0.00063  -0.00008  -0.00018
           D3          -0.00118  -0.00131   0.00081   0.00012   0.00020
                          A5        A6        A7        A8        A9
           A5           0.16008
           A6           0.00020   0.15970
           A7           0.00071   0.00208   0.14921
           A8           0.00085  -0.00360  -0.01212   0.11533
           A9          -0.00000  -0.00000   0.00001  -0.00012   0.00230
           D1           0.00002  -0.00002  -0.00006   0.00147  -0.00000
           D2          -0.00006  -0.00015  -0.00088   0.00548  -0.00000
           D3           0.00005   0.00015   0.00093  -0.00677   0.00001
                          D1        D2        D3
           D1           0.00232
           D2           0.00006   0.00258
           D3          -0.00008  -0.00033   0.00270
 ITU=  0 -1  0
 Use linear search instead of GDIIS.
     Eigenvalues ---    0.00230   0.00230   0.08436   0.09942   0.11899
     Eigenvalues ---    0.13650   0.15975   0.16000   0.16760   0.18052
     Eigenvalues ---    0.21611   0.32663   0.32665   0.34256   0.49502
 RFO step:  Lambda=-2.19214030D-04 EMin= 2.29998115D-03
 Quartic linear search produced a step of -0.23528.
 Iteration  1 RMS(Cart)=  0.01913614 RMS(Int)=  0.00015736
 Iteration  2 RMS(Cart)=  0.00014901 RMS(Int)=  0.00002373
 Iteration  3 RMS(Cart)=  0.00000003 RMS(Int)=  0.00002373
 Variable       Old X    -DE/DX   Delta X   Delta X   Delta X     New X
                                 (Linear)    (Quad)   (Total)
    R1        3.83872   0.00566   0.02770   0.00161   0.02930   3.86803
    R2        2.06355   0.00397   0.00774   0.00234   0.01008   2.07363
    R3        2.06301   0.00424   0.00787   0.00288   0.01074   2.07375
    R4        2.06294   0.00427   0.00788   0.00291   0.01079   2.07373
    R5        3.78403  -0.00401  -0.00774  -0.00630  -0.01404   3.76999
    R6        1.81386   0.00811   0.01351   0.00120   0.01471   1.82857
    A1        1.91833   0.00048  -0.00183  -0.00056  -0.00238   1.91594
    A2        1.90642   0.00107   0.00095   0.00645   0.00739   1.91380
    A3        1.90913   0.00109   0.00032   0.00630   0.00659   1.91571
    A4        1.91374  -0.00130  -0.00070  -0.00739  -0.00807   1.90567
    A5        1.91122  -0.00086  -0.00010  -0.00464  -0.00476   1.90646
    A6        1.90491  -0.00049   0.00138  -0.00010   0.00123   1.90614
    A7        1.88312   0.00215  -0.01402   0.02417   0.01014   1.89326
    A8        3.18345   0.00157  -0.00996   0.02881   0.01884   3.20229
    A9        3.13893  -0.00004   0.00063  -0.01077  -0.01014   3.12879
    D1        2.82534  -0.00011  -0.00057  -0.00484  -0.00544   2.81990
    D2        0.72739   0.00063   0.00026   0.00154   0.00186   0.72925
    D3       -1.36859  -0.00056   0.00067  -0.01434  -0.01371  -1.38230
         Item               Value     Threshold  Converged?
 Maximum Force            0.008115     0.000450     NO 
 RMS     Force            0.003154     0.000300     NO 
 Maximum Displacement     0.045034     0.001800     NO 
 RMS     Displacement     0.019163     0.001200     NO 
 Predicted change in Energy=-2.894915D-04
 GradGradGradGradGradGradGradGradGradGradGradGradGradGradGradGradGradGrad

                          Input orientation:                          
 ---------------------------------------------------------------------
 Center     Atomic      Atomic             Coordinates (Angstroms)
 Number     Number       Type             X           Y           Z
 ---------------------------------------------------------------------
      1          6           0       -9.569416    2.781968   -0.000155
      2         80           0       -7.528949    2.943739    0.002534
      3          1           0      -10.017430    3.730027    0.323225
      4          1           0       -9.877319    1.984369    0.687798
      5          1           0       -9.921290    2.542297   -1.011574
      6          8           0       -5.553428    3.221745   -0.003740
      7          1           0       -5.121867    2.355695    0.001961
 ---------------------------------------------------------------------
                    Distance matrix (angstroms):
                    1          2          3          4          5
     1  C    0.000000
     2  Hg   2.046872   0.000000
     3  H    1.097318   2.629378   0.000000
     4  H    1.097382   2.627703   1.788816   0.000000
     5  H    1.097373   2.629234   1.789311   1.789157   0.000000
     6  O    4.039997   1.994995   4.504727   4.550314   4.533828
     7  H    4.467931   2.477870   5.094952   4.818981   4.908823
                    6          7
     6  O    0.000000
     7  H    0.967637   0.000000
 Stoichiometry    CH4HgO
 Framework group  C1[X(CH4HgO)]
 Deg. of freedom    15
 Full point group                 C1      NOp   1
 Largest Abelian subgroup         C1      NOp   1
 Largest concise Abelian subgroup C1      NOp   1
                         Standard orientation:                         
 ---------------------------------------------------------------------
 Center     Atomic      Atomic             Coordinates (Angstroms)
 Number     Number       Type             X           Y           Z
 ---------------------------------------------------------------------
      1          6           0       -2.034118   -0.000825    0.003225
      2         80           0        0.012748    0.001963   -0.000760
      3          1           0       -2.404687   -0.979523   -0.326828
      4          1           0       -2.405576    0.774276   -0.679039
      5          1           0       -2.403467    0.202646    1.016343
      6          8           0        2.004226   -0.116387    0.003399
      7          1           0        2.364776    0.781569    0.003800
 ---------------------------------------------------------------------
 Rotational constants (GHZ):         125.3185900           3.6471237           3.6260550
 Standard basis: def2SVP (5D, 7F)
 There are    87 symmetry adapted cartesian basis functions of A   symmetry.
 There are    80 symmetry adapted basis functions of A   symmetry.
    80 basis functions,   143 primitive gaussians,    87 cartesian basis functions
    19 alpha electrons       19 beta electrons
       nuclear repulsion energy       113.8789908702 Hartrees.
 NAtoms=    7 NActive=    7 NUniq=    7 SFac= 1.00D+00 NAtFMM=   60 NAOKFM=F Big=F
 Integral buffers will be    131072 words long.
 Raffenetti 1 integral format.
 Two-electron integral symmetry is turned on.
 One-electron integrals computed using PRISM.
 PrsmSu:  requested number of processors reduced to:  13 ShMem   1 Linda.
   1 Symmetry operations used in ECPInt.
 ECPInt:  NShTT=     666 NPrTT=    2067 LenC2=     666 LenP2D=    1828.
 LDataN:  DoStor=T MaxTD1= 8 Len=  415
 NBasis=    80 RedAO= T EigKep=  7.18D-03  NBF=    80
 NBsUse=    80 1.00D-06 EigRej= -1.00D+00 NBFU=    80
 Initial guess from the checkpoint file:  "ch3hgoh_gas_apfd_def2svp.chk"
 B after Tr=     0.000000    0.000000    0.000000
         Rot=    0.999991   -0.004302    0.000005   -0.000085 Ang=  -0.49 deg.
 ExpMin= 5.64D-02 ExpMax= 2.27D+03 ExpMxC= 3.41D+02 IAcc=2 IRadAn=         4 AccDes= 0.00D+00
 Harris functional with IExCor=  205 and IRadAn=       4 diagonalized for initial guess.
 HarFok:  IExCor=  205 AccDes= 0.00D+00 IRadAn=         4 IDoV= 1 UseB2=F ITyADJ=14
 ICtDFT=  3500011 ScaDFX=  1.000000  1.000000  1.000000  1.000000
 Defaulting to unpruned grid for atomic number  80.
 FoFCou: FMM=F IPFlag=           0 FMFlag=      100000 FMFlg1=           0
         NFxFlg=           0 DoJE=T BraDBF=F KetDBF=T FulRan=T
         wScrn=  0.000000 ICntrl=       500 IOpCl=  0 I1Cent=   200000004 NGrid=           0
         NMat0=    1 NMatS0=      1 NMatT0=    0 NMatD0=    1 NMtDS0=    0 NMtDT0=    0
 Petite list used in FoFCou.
 Keep R1 ints in memory in canonical form, NReq=16971532.
 Requested convergence on RMS density matrix=1.00D-08 within  32 cycles.
 Requested convergence on MAX density matrix=1.00D-06.
 Requested convergence on             energy=1.00D-06.
 No special actions if energy rises.
 SCF Done:  E(RHF) =  -267.446658450     A.U. after   11 cycles
            NFock= 11  Conv=0.40D-08     -V/T= 2.6159
 QCSCF skips out because SCF is already converged.
 ExpMin= 5.64D-02 ExpMax= 2.27D+03 ExpMxC= 3.41D+02 IAcc=3 IRadAn=         5 AccDes= 0.00D+00
 HarFok:  IExCor=  205 AccDes= 0.00D+00 IRadAn=         5 IDoV=-2 UseB2=F ITyADJ=14
 ICtDFT= 12500011 ScaDFX=  1.000000  1.000000  1.000000  1.000000
 Defaulting to unpruned grid for atomic number  80.
 Range of M.O.s used for correlation:     3    80
 NBasis=    80 NAE=    19 NBE=    19 NFC=     2 NFV=     0
 NROrb=     78 NOA=    17 NOB=    17 NVA=    61 NVB=    61
 Disk-based method using ON**2 memory for 17 occupieds at a time.
 Estimated scratch disk usage=    22299030 words.
 Actual    scratch disk usage=    20727702 words.
 GetIJB would need an additional   279944354 words of memory to use all  24 processors.
 JobTyp=1 Pass  1:  I=   3 to  19 NPSUse=  6 ParTrn=T ParDer=T DoDerP=T.
 (rs|ai) integrals will be sorted in core.
 Spin components of T(2) and E(2):
     alpha-alpha T2 =       0.3039928317D-01 E2=     -0.1103807052D+00
     alpha-beta  T2 =       0.1452137880D+00 E2=     -0.5067856340D+00
     beta-beta   T2 =       0.3039928317D-01 E2=     -0.1103807052D+00
 ANorm=    0.1098185938D+01
 E2 =    -0.7275470445D+00 EUMP2 =    -0.26817420549493D+03
          IDoAtm=1111111
          Differentiating once with respect to electric field.
                with respect to dipole field.
          Differentiating once with respect to nuclear coordinates.
 Keep R1 ints in memory in canonical form, NReq=16973572.
          There are     1 degrees of freedom in the 1st order CPHF.  IDoFFX=0 NUNeed=     1.
 LinEq1:  Iter=  0 NonCon=     1 RMS=8.99D-03 Max=1.23D-01 NDo=     1
 AX will form     1 AO Fock derivatives at one time.
 LinEq1:  Iter=  1 NonCon=     1 RMS=2.09D-03 Max=2.55D-02 NDo=     1
 LinEq1:  Iter=  2 NonCon=     1 RMS=7.37D-04 Max=8.58D-03 NDo=     1
 LinEq1:  Iter=  3 NonCon=     1 RMS=2.75D-04 Max=2.78D-03 NDo=     1
 LinEq1:  Iter=  4 NonCon=     1 RMS=7.79D-05 Max=8.53D-04 NDo=     1
 LinEq1:  Iter=  5 NonCon=     1 RMS=1.63D-05 Max=1.53D-04 NDo=     1
 LinEq1:  Iter=  6 NonCon=     1 RMS=6.06D-06 Max=5.41D-05 NDo=     1
 LinEq1:  Iter=  7 NonCon=     1 RMS=2.20D-06 Max=2.27D-05 NDo=     1
 LinEq1:  Iter=  8 NonCon=     1 RMS=3.87D-07 Max=2.73D-06 NDo=     1
 LinEq1:  Iter=  9 NonCon=     1 RMS=1.05D-07 Max=1.12D-06 NDo=     1
 LinEq1:  Iter= 10 NonCon=     1 RMS=3.03D-08 Max=3.31D-07 NDo=     1
 LinEq1:  Iter= 11 NonCon=     1 RMS=8.36D-09 Max=8.07D-08 NDo=     1
 LinEq1:  Iter= 12 NonCon=     1 RMS=2.56D-09 Max=1.81D-08 NDo=     1
 LinEq1:  Iter= 13 NonCon=     1 RMS=4.11D-10 Max=3.29D-09 NDo=     1
 LinEq1:  Iter= 14 NonCon=     0 RMS=8.39D-11 Max=8.11D-10 NDo=     1
 Linear equations converged to 1.000D-10 1.000D-09 after    14 iterations.
 End of Minotr F.D. properties file   721 does not exist.
 End of Minotr F.D. properties file   722 does not exist.
 End of Minotr F.D. properties file   788 does not exist.
 PrsmSu:  requested number of processors reduced to:  13 ShMem   1 Linda.
   1 Symmetry operations used in ECPInt.
 ECPInt:  NShTT=     666 NPrTT=    2067 LenC2=     666 LenP2D=    1828.
 LDataN:  DoStor=T MaxTD1= 9 Len=  602
 Calling FoFJK, ICntrl=  10002127 FMM=F ISym2X=0 I1Cent= 0 IOpClX= 0 NMat=1 NMatS=1 NMatT=0.
 ***** Axes restored to original set *****
 -------------------------------------------------------------------
 Center     Atomic                   Forces (Hartrees/Bohr)
 Number     Number              X              Y              Z
 -------------------------------------------------------------------
      1        6           0.001127867   -0.000591448   -0.000110950
      2       80           0.001281230    0.001015674   -0.000240730
      3        1          -0.000281244    0.000324371    0.000184509
      4        1          -0.000439912   -0.000043174    0.000218975
      5        1          -0.000306802    0.000054031   -0.000175050
      6        8          -0.002160872   -0.001248160    0.000090109
      7        1           0.000779734    0.000488707    0.000033138
 -------------------------------------------------------------------
 Cartesian Forces:  Max     0.002160872 RMS     0.000757125

 GradGradGradGradGradGradGradGradGradGradGradGradGradGradGradGradGradGrad
 Berny optimization.
 Using GEDIIS/GDIIS optimizer.
 FormGI is forming the generalized inverse of G from B-inverse, IUseBI=4.
 Internal  Forces:  Max     0.001675767 RMS     0.000585204
 Search for a local minimum.
 Step number   4 out of a maximum of   28
 All quantities printed in internal units (Hartrees-Bohrs-Radians)
 Mixed Optimization -- En-DIIS/RFO-DIIS
 Update second derivatives using D2CorX and points    2    1    3    4
 DE= -3.02D-04 DEPred=-2.89D-04 R= 1.04D+00
 TightC=F SS=  1.41D+00  RLast= 5.08D-02 DXNew= 2.5227D-01 1.5238D-01
 Trust test= 1.04D+00 RLast= 5.08D-02 DXMaxT set to 1.52D-01
 The second derivative matrix:
                          R1        R2        R3        R4        R5
           R1           0.17392
           R2           0.00757   0.32741
           R3           0.01047   0.00221   0.33064
           R4           0.01105   0.00256   0.00439   0.33146
           R5          -0.00183   0.00359   0.00312   0.00288   0.19848
           R6           0.01771   0.00422   0.00797   0.00878   0.00269
           A1           0.00580   0.00399   0.00400   0.00413  -0.00420
           A2           0.00043  -0.00228  -0.00189  -0.00187   0.00604
           A3           0.00154  -0.00121  -0.00082  -0.00073   0.00443
           A4          -0.00000   0.00246   0.00215   0.00204  -0.00569
           A5          -0.00148   0.00074   0.00050   0.00043  -0.00319
           A6          -0.00617  -0.00361  -0.00384  -0.00389   0.00253
           A7           0.00325  -0.00501  -0.00486  -0.00479   0.01647
           A8          -0.00279   0.00042  -0.00031   0.00020  -0.00622
           A9          -0.00151  -0.00096  -0.00111  -0.00114   0.00069
           D1          -0.00099  -0.00056  -0.00065  -0.00066   0.00029
           D2           0.00444   0.00284   0.00317   0.00326  -0.00236
           D3          -0.00320  -0.00203  -0.00225  -0.00233   0.00174
                          R6        A1        A2        A3        A4
           R6           0.50453
           A1           0.00949   0.16558
           A2          -0.00175  -0.00394   0.16137
           A3           0.00048  -0.00091  -0.00067   0.15890
           A4           0.00189  -0.00029   0.00212   0.00193   0.15726
           A5          -0.00093   0.00030   0.00094   0.00107  -0.00164
           A6          -0.00902  -0.00077   0.00026  -0.00026   0.00056
           A7           0.00272  -0.00693  -0.00290  -0.00519   0.00762
           A8           0.00005   0.02836  -0.02196  -0.00728   0.00266
           A9          -0.00213  -0.00017  -0.00025  -0.00034   0.00039
           D1          -0.00135   0.00033  -0.00043  -0.00024   0.00019
           D2           0.00646   0.00166  -0.00041   0.00044  -0.00078
           D3          -0.00469  -0.00193   0.00092  -0.00009   0.00045
                          A5        A6        A7        A8        A9
           A5           0.15905
           A6           0.00025   0.15995
           A7           0.00501   0.00256   0.13331
           A8           0.00370  -0.00561  -0.02628   0.13167
           A9           0.00025   0.00011  -0.00061  -0.00071   0.00237
           D1           0.00015  -0.00000  -0.00050   0.00171   0.00002
           D2          -0.00041  -0.00049  -0.00039   0.00754  -0.00018
           D3           0.00017   0.00047   0.00124  -0.00891   0.00016
                          D1        D2        D3
           D1           0.00234
           D2           0.00002   0.00305
           D3          -0.00005  -0.00076   0.00309
 ITU=  1  0 -1  0
 Use linear search instead of GDIIS.
     Eigenvalues ---    0.00229   0.00232   0.08018   0.09949   0.11518
     Eigenvalues ---    0.13705   0.15974   0.15997   0.17348   0.18368
     Eigenvalues ---    0.21072   0.32624   0.32665   0.33787   0.50686
 RFO step:  Lambda=-5.12122173D-05 EMin= 2.29387382D-03
 Quartic linear search produced a step of  0.09126.
 Iteration  1 RMS(Cart)=  0.01256337 RMS(Int)=  0.00020123
 Iteration  2 RMS(Cart)=  0.00040169 RMS(Int)=  0.00003597
 Iteration  3 RMS(Cart)=  0.00000016 RMS(Int)=  0.00003597
 Variable       Old X    -DE/DX   Delta X   Delta X   Delta X     New X
                                 (Linear)    (Quad)   (Total)
    R1        3.86803  -0.00008   0.00267  -0.00333  -0.00065   3.86738
    R2        2.07363   0.00045   0.00092   0.00101   0.00193   2.07556
    R3        2.07375   0.00029   0.00098   0.00044   0.00142   2.07517
    R4        2.07373   0.00025   0.00098   0.00029   0.00127   2.07501
    R5        3.76999  -0.00147  -0.00128  -0.00800  -0.00928   3.76072
    R6        1.82857  -0.00009   0.00134  -0.00136  -0.00001   1.82856
    A1        1.91594  -0.00008  -0.00022  -0.00016  -0.00036   1.91559
    A2        1.91380   0.00051   0.00067   0.00356   0.00420   1.91800
    A3        1.91571   0.00029   0.00060   0.00239   0.00298   1.91870
    A4        1.90567  -0.00036  -0.00074  -0.00322  -0.00396   1.90171
    A5        1.90646  -0.00025  -0.00043  -0.00225  -0.00263   1.90383
    A6        1.90614  -0.00012   0.00011  -0.00038  -0.00033   1.90581
    A7        1.89326   0.00168   0.00093   0.01394   0.01487   1.90812
    A8        3.20229  -0.00047   0.00172  -0.00133   0.00036   3.20265
    A9        3.12879   0.00014  -0.00093   0.06724   0.06631   3.19510
    D1        2.81990  -0.00004  -0.00050  -0.01156  -0.01200   2.80790
    D2        0.72925   0.00012   0.00017  -0.00359  -0.00338   0.72588
    D3       -1.38230  -0.00011  -0.00125  -0.00874  -0.01009  -1.39238
         Item               Value     Threshold  Converged?
 Maximum Force            0.001676     0.000450     NO 
 RMS     Force            0.000585     0.000300     NO 
 Maximum Displacement     0.036804     0.001800     NO 
 RMS     Displacement     0.012639     0.001200     NO 
 Predicted change in Energy=-2.793489D-05
 GradGradGradGradGradGradGradGradGradGradGradGradGradGradGradGradGradGrad

                          Input orientation:                          
 ---------------------------------------------------------------------
 Center     Atomic      Atomic             Coordinates (Angstroms)
 Number     Number       Type             X           Y           Z
 ---------------------------------------------------------------------
      1          6           0       -9.568534    2.780996   -0.001533
      2         80           0       -7.528348    2.941253   -0.016941
      3          1           0      -10.012968    3.729831    0.327918
      4          1           0       -9.875570    1.984364    0.689122
      5          1           0       -9.933119    2.544853   -1.010007
      6          8           0       -5.557811    3.218988   -0.000084
      7          1           0       -5.113350    2.359554    0.011576
 ---------------------------------------------------------------------
                    Distance matrix (angstroms):
                    1          2          3          4          5
     1  C    0.000000
     2  Hg   2.046528   0.000000
     3  H    1.098338   2.629471   0.000000
     4  H    1.098134   2.631276   1.787737   0.000000
     5  H    1.098047   2.631774   1.789020   1.790111   0.000000
     6  O    4.034568   1.990085   4.496328   4.543385   4.540674
     7  H    4.475092   2.484231   5.097449   4.824788   4.930329
                    6          7
     6  O    0.000000
     7  H    0.967630   0.000000
 Stoichiometry    CH4HgO
 Framework group  C1[X(CH4HgO)]
 Deg. of freedom    15
 Full point group                 C1      NOp   1
 Largest Abelian subgroup         C1      NOp   1
 Largest concise Abelian subgroup C1      NOp   1
                         Standard orientation:                         
 ---------------------------------------------------------------------
 Center     Atomic      Atomic             Coordinates (Angstroms)
 Number     Number       Type             X           Y           Z
 ---------------------------------------------------------------------
      1          6           0       -2.033350   -0.001035   -0.012834
      2         80           0        0.013113    0.002189    0.003225
      3          1           0       -2.400402   -0.979389   -0.351128
      4          1           0       -2.402884    0.774626   -0.696714
      5          1           0       -2.415953    0.196209    0.997323
      6          8           0        1.999552   -0.116964   -0.014094
      7          1           0        2.373883    0.775320   -0.017688
 ---------------------------------------------------------------------
 Rotational constants (GHZ):         125.3281326           3.6538674           3.6332102
 Standard basis: def2SVP (5D, 7F)
 There are    87 symmetry adapted cartesian basis functions of A   symmetry.
 There are    80 symmetry adapted basis functions of A   symmetry.
    80 basis functions,   143 primitive gaussians,    87 cartesian basis functions
    19 alpha electrons       19 beta electrons
       nuclear repulsion energy       113.9705825608 Hartrees.
 NAtoms=    7 NActive=    7 NUniq=    7 SFac= 1.00D+00 NAtFMM=   60 NAOKFM=F Big=F
 Integral buffers will be    131072 words long.
 Raffenetti 1 integral format.
 Two-electron integral symmetry is turned on.
 One-electron integrals computed using PRISM.
 PrsmSu:  requested number of processors reduced to:  13 ShMem   1 Linda.
   1 Symmetry operations used in ECPInt.
 ECPInt:  NShTT=     666 NPrTT=    2067 LenC2=     666 LenP2D=    1828.
 LDataN:  DoStor=T MaxTD1= 8 Len=  415
 NBasis=    80 RedAO= T EigKep=  7.16D-03  NBF=    80
 NBsUse=    80 1.00D-06 EigRej= -1.00D+00 NBFU=    80
 Initial guess from the checkpoint file:  "ch3hgoh_gas_apfd_def2svp.chk"
 B after Tr=     0.000000   -0.000000    0.000000
         Rot=    0.999999   -0.001704    0.000193    0.000084 Ang=  -0.20 deg.
 ExpMin= 5.64D-02 ExpMax= 2.27D+03 ExpMxC= 3.41D+02 IAcc=2 IRadAn=         4 AccDes= 0.00D+00
 Harris functional with IExCor=  205 and IRadAn=       4 diagonalized for initial guess.
 HarFok:  IExCor=  205 AccDes= 0.00D+00 IRadAn=         4 IDoV= 1 UseB2=F ITyADJ=14
 ICtDFT=  3500011 ScaDFX=  1.000000  1.000000  1.000000  1.000000
 Defaulting to unpruned grid for atomic number  80.
 FoFCou: FMM=F IPFlag=           0 FMFlag=      100000 FMFlg1=           0
         NFxFlg=           0 DoJE=T BraDBF=F KetDBF=T FulRan=T
         wScrn=  0.000000 ICntrl=       500 IOpCl=  0 I1Cent=   200000004 NGrid=           0
         NMat0=    1 NMatS0=      1 NMatT0=    0 NMatD0=    1 NMtDS0=    0 NMtDT0=    0
 Petite list used in FoFCou.
 Keep R1 ints in memory in canonical form, NReq=16971532.
 Requested convergence on RMS density matrix=1.00D-08 within  32 cycles.
 Requested convergence on MAX density matrix=1.00D-06.
 Requested convergence on             energy=1.00D-06.
 No special actions if energy rises.
 SCF Done:  E(RHF) =  -267.446785161     A.U. after   11 cycles
            NFock= 11  Conv=0.35D-08     -V/T= 2.6159
 QCSCF skips out because SCF is already converged.
 ExpMin= 5.64D-02 ExpMax= 2.27D+03 ExpMxC= 3.41D+02 IAcc=3 IRadAn=         5 AccDes= 0.00D+00
 HarFok:  IExCor=  205 AccDes= 0.00D+00 IRadAn=         5 IDoV=-2 UseB2=F ITyADJ=14
 ICtDFT= 12500011 ScaDFX=  1.000000  1.000000  1.000000  1.000000
 Defaulting to unpruned grid for atomic number  80.
 Range of M.O.s used for correlation:     3    80
 NBasis=    80 NAE=    19 NBE=    19 NFC=     2 NFV=     0
 NROrb=     78 NOA=    17 NOB=    17 NVA=    61 NVB=    61
 Disk-based method using ON**2 memory for 17 occupieds at a time.
 Estimated scratch disk usage=    22299030 words.
 Actual    scratch disk usage=    20727702 words.
 GetIJB would need an additional   279944552 words of memory to use all  24 processors.
 JobTyp=1 Pass  1:  I=   3 to  19 NPSUse=  6 ParTrn=T ParDer=T DoDerP=T.
 (rs|ai) integrals will be sorted in core.
 Spin components of T(2) and E(2):
     alpha-alpha T2 =       0.3038179706D-01 E2=     -0.1103660943D+00
     alpha-beta  T2 =       0.1451166271D+00 E2=     -0.5066970342D+00
     beta-beta   T2 =       0.3038179706D-01 E2=     -0.1103660943D+00
 ANorm=    0.1098125777D+01
 E2 =    -0.7274292228D+00 EUMP2 =    -0.26817421438413D+03
          IDoAtm=1111111
          Differentiating once with respect to electric field.
                with respect to dipole field.
          Differentiating once with respect to nuclear coordinates.
 Keep R1 ints in memory in canonical form, NReq=16973572.
          There are     1 degrees of freedom in the 1st order CPHF.  IDoFFX=0 NUNeed=     1.
 LinEq1:  Iter=  0 NonCon=     1 RMS=8.96D-03 Max=1.21D-01 NDo=     1
 AX will form     1 AO Fock derivatives at one time.
 LinEq1:  Iter=  1 NonCon=     1 RMS=2.08D-03 Max=2.56D-02 NDo=     1
 LinEq1:  Iter=  2 NonCon=     1 RMS=7.34D-04 Max=8.56D-03 NDo=     1
 LinEq1:  Iter=  3 NonCon=     1 RMS=2.74D-04 Max=2.77D-03 NDo=     1
 LinEq1:  Iter=  4 NonCon=     1 RMS=7.74D-05 Max=8.43D-04 NDo=     1
 LinEq1:  Iter=  5 NonCon=     1 RMS=1.62D-05 Max=1.50D-04 NDo=     1
 LinEq1:  Iter=  6 NonCon=     1 RMS=6.01D-06 Max=5.38D-05 NDo=     1
 LinEq1:  Iter=  7 NonCon=     1 RMS=2.18D-06 Max=2.24D-05 NDo=     1
 LinEq1:  Iter=  8 NonCon=     1 RMS=3.84D-07 Max=2.70D-06 NDo=     1
 LinEq1:  Iter=  9 NonCon=     1 RMS=1.06D-07 Max=1.09D-06 NDo=     1
 LinEq1:  Iter= 10 NonCon=     1 RMS=3.02D-08 Max=3.26D-07 NDo=     1
 LinEq1:  Iter= 11 NonCon=     1 RMS=8.42D-09 Max=8.16D-08 NDo=     1
 LinEq1:  Iter= 12 NonCon=     1 RMS=2.58D-09 Max=1.84D-08 NDo=     1
 LinEq1:  Iter= 13 NonCon=     1 RMS=4.14D-10 Max=3.25D-09 NDo=     1
 LinEq1:  Iter= 14 NonCon=     0 RMS=8.59D-11 Max=7.46D-10 NDo=     1
 Linear equations converged to 1.000D-10 1.000D-09 after    14 iterations.
 End of Minotr F.D. properties file   721 does not exist.
 End of Minotr F.D. properties file   722 does not exist.
 End of Minotr F.D. properties file   788 does not exist.
 PrsmSu:  requested number of processors reduced to:  13 ShMem   1 Linda.
   1 Symmetry operations used in ECPInt.
 ECPInt:  NShTT=     666 NPrTT=    2067 LenC2=     666 LenP2D=    1828.
[...]
           X            0.99991   0.01350   0.00000
           Y           -0.01350   0.99991   0.00038
           Z            0.00000  -0.00038   1.00000
 This molecule is an asymmetric top.
 Rotational symmetry number  1.
 Rotational temperatures (Kelvin)      6.03942     0.17542     0.17443
 Rotational constants (GHZ):         125.84112     3.65522     3.63447
 Zero-point vibrational energy     130166.8 (Joules/Mol)
                                   31.11062 (Kcal/Mol)
 Warning -- explicit consideration of   5 degrees of freedom as
           vibrations may cause significant error
 Vibrational temperatures:     56.63   248.79   250.49   820.12   882.80
          (Kelvin)           1158.63  1202.25  1264.57  1829.81  2112.26
                             2113.66  4476.03  4658.76  4660.13  5576.00
 
 Zero-point correction=                           0.049578 (Hartree/Particle)
 Thermal correction to Energy=                    0.055032
 Thermal correction to Enthalpy=                  0.055977
 Thermal correction to Gibbs Free Energy=         0.019562
 Sum of electronic and zero-point Energies=           -268.124683
 Sum of electronic and thermal Energies=              -268.119228
 Sum of electronic and thermal Enthalpies=            -268.118284
 Sum of electronic and thermal Free Energies=         -268.154699
 
                     E (Thermal)             CV                S
                      KCal/Mol        Cal/Mol-Kelvin    Cal/Mol-Kelvin
 Total                   34.533             15.887             76.641
 Electronic               0.000              0.000              0.000
 Translational            0.889              2.981             42.252
 Rotational               0.889              2.981             22.779
 Vibrational             32.756              9.926             11.609
 Vibration     1          0.594              1.981              5.291
 Vibration     2          0.626              1.876              2.403
 Vibration     3          0.627              1.874              2.391
 Vibration     4          0.926              1.096              0.504
 Vibration     5          0.973              1.003              0.427
                       Q            Log10(Q)             Ln(Q)
 Total Bot       0.100474D-08         -8.997946        -20.718537
 Total V=0       0.640170D+14         13.806295         31.790169
 Vib (Bot)       0.336438D-21        -21.473094        -49.443627
 Vib (Bot)    1  0.525726D+01          0.720760          1.659610
 Vib (Bot)    2  0.116430D+01          0.066066          0.152122
 Vib (Bot)    3  0.115598D+01          0.062951          0.144949
 Vib (Bot)    4  0.269999D+00         -0.568638         -1.309338
 Vib (Bot)    5  0.239954D+00         -0.619872         -1.427307
 Vib (V=0)       0.214361D+02          1.331147          3.065079
 Vib (V=0)    1  0.578098D+01          0.762002          1.754574
 Vib (V=0)    2  0.176712D+01          0.247267          0.569353
 Vib (V=0)    3  0.175948D+01          0.245385          0.565019
 Vib (V=0)    4  0.106824D+01          0.028670          0.066015
 Vib (V=0)    5  0.105460D+01          0.023087          0.053159
 Electronic      0.100000D+01          0.000000          0.000000
 Translational   0.140692D+09          8.148269         18.762082
 Rotational      0.212266D+05          4.326879          9.963008
 ***** Axes restored to original set *****
 -------------------------------------------------------------------
 Center     Atomic                   Forces (Hartrees/Bohr)
 Number     Number              X              Y              Z
 -------------------------------------------------------------------
      1        6          -0.000046032    0.000031375    0.000039181
      2       80           0.000036579   -0.000033611   -0.000008831
      3        1           0.000017015    0.000016498   -0.000008023
      4        1           0.000014099   -0.000015409   -0.000019024
      5        1           0.000005037   -0.000013082   -0.000009310
      6        8          -0.000036602    0.000013859    0.000004332
      7        1           0.000009904    0.000000369    0.000001675
 -------------------------------------------------------------------
 Cartesian Forces:  Max     0.000046032 RMS     0.000022407
 FormGI is forming the generalized inverse of G from B-inverse, IUseBI=4.

 GradGradGradGradGradGradGradGradGradGradGradGradGradGradGradGradGradGrad
 Berny optimization.
 Internal  Forces:  Max     0.000056365 RMS     0.000019902
 Search for a local minimum.
 Step number   1 out of a maximum of    2
 All quantities printed in internal units (Hartrees-Bohrs-Radians)
 Second derivative matrix not updated -- analytic derivatives used.
 The second derivative matrix:
                          R1        R2        R3        R4        R5
           R1           0.17967
           R2           0.00206   0.36136
           R3           0.00205  -0.00070   0.36126
           R4           0.00206  -0.00071  -0.00071   0.36140
           R5           0.00242   0.00069   0.00066   0.00069   0.21820
           R6          -0.00152  -0.00009  -0.00013  -0.00009  -0.00212
           A1           0.01183   0.00031  -0.00606  -0.00562   0.00339
           A2           0.01207  -0.00592   0.00075  -0.00591   0.00376
           A3           0.01183  -0.00562  -0.00605   0.00031   0.00337
           A4          -0.01214   0.00711   0.00736  -0.00294  -0.00365
           A5          -0.01199   0.00721  -0.00315   0.00721  -0.00339
           A6          -0.01214  -0.00294   0.00735   0.00710  -0.00365
           A7           0.00393   0.00021   0.00066   0.00021   0.03076
           A8          -0.00141   0.00108  -0.00235   0.00109  -0.00324
           A9           0.00001   0.00065  -0.00000  -0.00065   0.00002
           D1          -0.00011   0.00000   0.00521  -0.00538  -0.00015
           D2          -0.00000  -0.00543  -0.00000   0.00543  -0.00000
           D3           0.00011   0.00538  -0.00521  -0.00000   0.00015
                          R6        A1        A2        A3        A4
           R6           0.53909
           A1          -0.00058   0.08338
           A2           0.00106  -0.01503   0.08481
           A3          -0.00056  -0.01259  -0.01503   0.08337
           A4           0.00008  -0.03087  -0.02761   0.00158   0.06275
           A5          -0.00010  -0.02740  -0.00025  -0.02741  -0.00299
           A6           0.00010   0.00160  -0.02760  -0.03086  -0.00195
           A7           0.01636  -0.00194   0.00575  -0.00198  -0.00035
           A8          -0.00374   0.01591  -0.03150   0.01597  -0.00582
           A9          -0.00001   0.00741  -0.00001  -0.00740   0.00060
           D1          -0.00014   0.00177   0.00449  -0.00571   0.01973
           D2          -0.00001  -0.00700  -0.00000   0.00701  -0.01941
           D3           0.00015   0.00572  -0.00450  -0.00177   0.00025
                          A5        A6        A7        A8        A9
           A5           0.06181
           A6          -0.00299   0.06272
           A7          -0.00113  -0.00036   0.08716
           A8           0.01111  -0.00579  -0.02101   0.13954
           A9           0.00001  -0.00060   0.00004   0.00005   0.01301
           D1          -0.01998  -0.00025  -0.00119   0.00415   0.00155
           D2          -0.00000   0.01941   0.00000  -0.00001  -0.00291
           D3           0.01998  -0.01973   0.00119  -0.00414   0.00155
                          D1        D2        D3
           D1           0.01910
           D2          -0.00968   0.01873
           D3          -0.00903  -0.00967   0.01910
 ITU=  0
     Eigenvalues ---    0.00005   0.01143   0.06317   0.07250   0.07569
     Eigenvalues ---    0.09997   0.10544   0.11771   0.16681   0.18974
     Eigenvalues ---    0.22747   0.36098   0.36286   0.36291   0.53975
 Angle between quadratic step and forces=  76.52 degrees.
 Linear search not attempted -- first point.
 Iteration  1 RMS(Cart)=  0.00072691 RMS(Int)=  0.00000106
 Iteration  2 RMS(Cart)=  0.00000077 RMS(Int)=  0.00000006
 Variable       Old X    -DE/DX   Delta X   Delta X   Delta X     New X
                                 (Linear)    (Quad)   (Total)
    R1        3.86585   0.00001   0.00000   0.00010   0.00010   3.86595
    R2        2.07477   0.00000   0.00000  -0.00000  -0.00000   2.07477
    R3        2.07487  -0.00000   0.00000  -0.00002  -0.00002   2.07485
    R4        2.07475   0.00001   0.00000   0.00002   0.00002   2.07477
    R5        3.75964  -0.00003   0.00000  -0.00014  -0.00014   3.75950
    R6        1.82770   0.00001   0.00000   0.00000   0.00000   1.82770
    A1        1.91888  -0.00002   0.00000  -0.00028  -0.00028   1.91860
    A2        1.91617  -0.00002   0.00000  -0.00002  -0.00002   1.91615
    A3        1.91872  -0.00001   0.00000  -0.00012  -0.00012   1.91860
    A4        1.90226   0.00003   0.00000   0.00037   0.00037   1.90263
    A5        1.90487   0.00002   0.00000   0.00014   0.00014   1.90501
    A6        1.90272  -0.00001   0.00000  -0.00008  -0.00008   1.90263
    A7        1.91602   0.00002   0.00000   0.00034   0.00034   1.91635
    A8        3.20304   0.00006   0.00000   0.00049   0.00049   3.20353
    A9        3.14025   0.00002   0.00000   0.00134   0.00134   3.14159
    D1        2.09980   0.00001   0.00000   0.00252   0.00252   2.10231
    D2       -0.00227  -0.00001   0.00000   0.00234   0.00234   0.00007
    D3       -2.10448   0.00000   0.00000   0.00230   0.00230  -2.10218
         Item               Value     Threshold  Converged?
 Maximum Force            0.000056     0.000450     YES
 RMS     Force            0.000020     0.000300     YES
 Maximum Displacement     0.001615     0.001800     YES
 RMS     Displacement     0.000727     0.001200     YES
 Predicted change in Energy=-4.351027D-08
 Optimization completed.
    -- Stationary point found.
                           ----------------------------
                           !   Optimized Parameters   !
                           ! (Angstroms and Degrees)  !
 --------------------------                            --------------------------
 ! Name  Definition              Value          Derivative Info.                !
 --------------------------------------------------------------------------------
 ! R1    R(1,2)                  2.0457         -DE/DX =    0.0                 !
 ! R2    R(1,3)                  1.0979         -DE/DX =    0.0                 !
 ! R3    R(1,4)                  1.098          -DE/DX =    0.0                 !
 ! R4    R(1,5)                  1.0979         -DE/DX =    0.0                 !
 ! R5    R(2,6)                  1.9895         -DE/DX =    0.0                 !
 ! R6    R(6,7)                  0.9672         -DE/DX =    0.0                 !
 ! A1    A(2,1,3)              109.9438         -DE/DX =    0.0                 !
 ! A2    A(2,1,4)              109.7885         -DE/DX =    0.0                 !
 ! A3    A(2,1,5)              109.9347         -DE/DX =    0.0                 !
 ! A4    A(3,1,4)              108.9916         -DE/DX =    0.0                 !
 ! A5    A(3,1,5)              109.1412         -DE/DX =    0.0                 !
 ! A6    A(4,1,5)              109.0176         -DE/DX =    0.0                 !
 ! A7    A(2,6,7)              109.7796         -DE/DX =    0.0                 !
 ! A8    L(1,2,6,7,-1)         183.5206         -DE/DX =    0.0001              !
 ! A9    L(1,2,6,7,-2)         179.9229         -DE/DX =    0.0                 !
 ! D1    D(3,1,6,7)            120.3096         -DE/DX =    0.0                 !
 ! D2    D(4,1,6,7)             -0.13           -DE/DX =    0.0                 !
 ! D3    D(5,1,6,7)           -120.5779         -DE/DX =    0.0                 !
 --------------------------------------------------------------------------------
 GradGradGradGradGradGradGradGradGradGradGradGradGradGradGradGradGradGrad


 ----------------------------------------------------------------------

 Electric dipole moment (input orientation):
 (Debye = 10**-18 statcoulomb cm , SI units = C m)
                  (au)            (Debye)         (10**-30 SI)
   Tot        0.913504D+00      0.232190D+01      0.774501D+01
   x         -0.692220D+00     -0.175945D+01     -0.586889D+01
   y         -0.477215D+00     -0.121296D+01     -0.404600D+01
   z          0.357193D+00      0.907895D+00      0.302841D+01

 Dipole polarizability, Alpha (input orientation).
 (esu units = cm**3 , SI units = C**2 m**2 J**-1)
 Alpha(0;0):
               (au)            (10**-24 esu)      (10**-40 SI)
   iso        0.435104D+02      0.644758D+01      0.717390D+01
   aniso      0.293916D+02      0.435538D+01      0.484602D+01
   xx         0.630100D+02      0.933712D+01      0.103889D+02
   yx         0.128605D+01      0.190572D+00      0.212040D+00
   yy         0.339664D+02      0.503330D+01      0.560030D+01
   zx        -0.764747D+00     -0.113324D+00     -0.126090D+00
   zy        -0.705888D+00     -0.104602D+00     -0.116385D+00
   zz         0.335548D+02      0.497231D+01      0.553244D+01

 ----------------------------------------------------------------------

 Dipole orientation:
     6        -12.11508776          9.37180989         10.95534975
    80        -10.04264301          8.39031313          7.84304444
     1        -12.47358972         11.41537121         10.95121751
     1        -11.07345778          8.87248953         12.67894639
     1        -13.92805644          8.36304668         10.94489320
     8         -8.19953689          7.51584332          4.68500972
     1         -6.59109050          6.75278812          5.09870429

 Electric dipole moment (dipole orientation):
 (Debye = 10**-18 statcoulomb cm , SI units = C m)
                  (au)            (Debye)         (10**-30 SI)
   Tot        0.913504D+00      0.232190D+01      0.774501D+01
   x          0.000000D+00      0.000000D+00      0.000000D+00
   y          0.000000D+00      0.000000D+00      0.000000D+00
   z          0.913504D+00      0.232190D+01      0.774501D+01

 Dipole polarizability, Alpha (dipole orientation).
 (esu units = cm**3 , SI units = C**2 m**2 J**-1)
 Alpha(0;0):
               (au)            (10**-24 esu)      (10**-40 SI)
   iso        0.435104D+02      0.644758D+01      0.717390D+01
   aniso      0.293916D+02      0.435538D+01      0.484602D+01
   xx         0.429386D+02      0.636285D+01      0.707962D+01
   yx        -0.469983D+01     -0.696443D+00     -0.774897D+00
   yy         0.352524D+02      0.522387D+01      0.581234D+01
   zx        -0.125409D+02     -0.185837D+01     -0.206772D+01
   zy         0.594551D+01      0.881033D+00      0.980281D+00
   zz         0.523402D+02      0.775602D+01      0.862973D+01

 ----------------------------------------------------------------------

 Test job not archived.
 1\1\GINC-GRANADO-COMPUTE-16\Freq\RMP2-FC\def2SVP\C1H4Hg1O1\ROOT\16-Aug
 -2023\0\\#N Geom=AllCheck Guess=TCheck SCRF=Check Test GenChk RMP2(FC)
 /def2SVP Freq\\Optimization MeHgoh-gas-apfd-def2svp phase\\0,1\C,-9.56
 89133018,2.7823107364,-0.0004421965\Hg,-7.5291183154,2.9130987197,-0.0
 847230117\H,-9.9864026064,3.7066871041,0.4198733838\H,-9.8611952576,1.
 9365828455,0.6358487361\H,-9.976159538,2.6291369602,-1.0084551467\O,-5
 .5583673131,3.1365899819,-0.2408419738\H,-5.1095436677,2.4554336522,0.
 278790209\\Version=EM64L-G16RevA.03\State=1-A\HF=-267.4469054\MP2=-268
 .1742607\RMSD=7.380e-09\RMSF=2.241e-05\ZeroPoint=0.0495779\Thermal=0.0
 550324\Dipole=-0.6922202,-0.4772147,0.3571934\DipoleDeriv=-0.1028176,-
 0.0065583,0.0051165,0.0470566,-0.1301468,0.0109909,-0.0355935,0.010621
 ,-0.124401,1.4161814,0.0595392,-0.0374334,0.0083608,0.3075995,-0.00610
 73,0.0013436,-0.0057622,0.3038298,-0.0865163,0.0798725,0.0393883,0.024
 2204,-0.0014182,-0.0302301,0.0192395,-0.0322116,0.0443751,-0.0429021,-
 0.0758699,0.056509,-0.0320658,-0.0014429,0.0453877,0.0234461,0.0450956
 ,0.0251545,-0.0853303,-0.0168163,-0.0881081,-0.0127076,0.0572259,-0.01
 61057,-0.0290317,-0.0137797,-0.0154133,-1.3452477,-0.0655944,0.0441215
 ,0.035866,-0.3990751,-0.0965807,-0.0327916,-0.0972447,-0.4532069,0.246
 6327,0.0254271,-0.0195937,-0.0707303,0.1672576,0.0926453,0.0533876,0.0
 932816,0.2196619\Polar=63.010005,1.2860454,33.9663836,-0.7647466,-0.70
 58883,33.5548278\PG=C01 [X(C1H4Hg1O1)]\NImag=0\\0.35560634,-0.01310893
 ,0.55904786,0.00839998,0.00113088,0.56006704,-0.15189270,-0.00558549,0
 .00342989,0.39090683,-0.00857639,-0.04469892,0.00178814,0.02279684,0.0
 6960435,0.00573027,0.00181308,-0.04359640,-0.01494639,-0.00882007,0.06
 435364,-0.07902624,0.10603982,0.04708815,-0.00913846,0.01845667,0.0078
 9567,0.08434425,0.09268836,-0.25523229,-0.09501454,-0.00218590,0.00479
 206,0.00242928,-0.10079173,0.27055639,0.04124640,-0.09606636,-0.089832
 99,-0.00035233,0.00130814,-0.00049571,-0.04537695,0.10285299,0.0909889
 4,-0.05573684,-0.06946420,0.05234899,-0.00635625,-0.01736534,0.0130651
 8,0.00265132,0.00972380,-0.00841549,0.06108276,-0.05769942,-0.22174029
 ,0.13231006,0.00047527,0.00126090,-0.00173593,-0.00847076,-0.01684688,
 0.01693666,0.06363927,0.23313494,0.04347180,0.13222669,-0.14539787,-0.
 00039635,-0.00186307,0.00035973,-0.00418915,-0.01173647,0.00768138,-0.
 04790963,-0.14225370,0.15107666,-0.07687661,-0.01601390,-0.11267111,-0
 .00896573,-0.00259140,-0.02004917,0.00421214,0.00119995,0.01276403,0.0
 0254218,0.00174743,0.00928730,0.08215670,-0.01404956,-0.05205930,-0.03
 890853,-0.00031215,-0.00110293,-0.00050995,-0.01167930,-0.00207643,-0.
 02458850,0.01054266,0.00455260,0.02317044,0.01582428,0.05042710,-0.098
 23416,-0.03777612,-0.29519342,0.00206454,0.00074364,0.00521795,-0.0045
 5490,0.00186934,-0.00848189,-0.00685216,-0.00569464,-0.01358959,0.1070
 2344,0.04084126,0.31332526,0.00789719,0.00171016,-0.00130321,-0.199389
 03,-0.02756674,0.01965114,-0.00341136,-0.00079026,-0.00005228,-0.00253
 067,0.00016325,-0.00014133,-0.00344137,-0.00019056,0.00075225,0.328750
 78,0.00204789,0.01465579,-0.00211618,-0.00903941,-0.03022358,0.0091405
 5,-0.00324212,-0.00117323,-0.00061191,0.00324583,-0.00032681,0.0002536
 5,-0.00027318,0.00024057,0.00010933,-0.15291879,0.28357355,-0.00159315
 ,-0.00212722,0.01344645,0.00562111,0.00902186,-0.02488987,-0.00066743,
 -0.00029656,0.00009985,-0.00247020,0.00023224,-0.00021300,0.00329121,-
 0.00018487,-0.00128301,0.11816778,-0.21090981,0.16760466,0.00002886,-0
 .00357746,0.00270730,-0.01516466,0.01484636,-0.01134669,0.00036834,0.0
 0015579,0.00018661,-0.00165250,0.00014496,-0.00012264,0.00037268,-0.00
 013536,-0.00019902,-0.12787554,0.16017977,-0.12234932,0.14392281,-0.00
 130195,0.00002715,0.00081018,-0.00614916,0.00036812,-0.00231695,-0.000
 31258,-0.00001963,0.00016900,-0.00032203,-0.00003447,0.00020246,0.0001
 0683,0.00001839,-0.00009281,0.17959294,-0.26674629,0.20426437,-0.17161
 405,0.26638673,0.00097886,0.00079905,0.00050720,0.00457952,-0.00217863
 ,-0.00094935,-0.00019539,-0.00010404,0.00004041,0.00023330,0.00020531,
 0.00008269,0.00035430,0.00018016,0.00000469,-0.13707434,0.20413438,-0.
 15476508,0.13112376,-0.20303623,0.15507944\\0.00004603,-0.00003138,-0.
 00003918,-0.00003658,0.00003361,0.00000883,-0.00001702,-0.00001650,0.0
 0000802,-0.00001410,0.00001541,0.00001902,-0.00000504,0.00001308,0.000
 00931,0.00003660,-0.00001386,-0.00000433,-0.00000990,-0.00000037,-0.00
 000167\\\@


 NO HUMAN INVESTIGATION CAN BECOME REAL SCIENCE
 WITHOUT GOING THROUGH MATHEMATICAL PEOPLE.
 -- LEONARDO DA VINCI, IN "PENSIERI" CA. 1492
 Job cpu time:       0 days  1 hours 44 minutes 19.3 seconds.
 Elapsed time:       0 days  4 hours 35 minutes 29.7 seconds.
 File lengths (MBytes):  RWF=    498 Int=      0 D2E=      0 Chk=      3 Scr=      1
 Normal termination of Gaussian 16 at Wed Aug 16 10:18:57 2023.
s 43 minutes  5.6 seconds.
 Elapsed time:       0 days  4 hours 29 minutes 23.9 seconds.
 File lengths (MBytes):  RWF=    498 Int=      0 D2E=      0 Chk=      3 Scr=      1
 Normal termination of Gaussian 16 at Wed Aug 16 10:14:41 2023.
