 Entering Gaussian System, Link 0=g16
 Input=input.gjf
 Output=input.log
 Initial command:
 /opt/ohpc/pub/apps/gaussian/G16x86_64_legacy_CPUs_linux_binary/g16/l1.exe "/tmp/Gau-62714.inp" -scrdir="/tmp/"
 Entering Link 1 = /opt/ohpc/pub/apps/gaussian/G16x86_64_legacy_CPUs_linux_binary/g16/l1.exe PID=     62715.
  
 Copyright (c) 1988,1990,1992,1993,1995,1998,2003,2009,2016,
            Gaussian, Inc.  All Rights Reserved.
  
 This is part of the Gaussian(R) 16 program.  It is based on
 the Gaussian(R) 09 system (copyright 2009, Gaussian, Inc.),
 the Gaussian(R) 03 system (copyright 2003, Gaussian, Inc.),
 the Gaussian(R) 98 system (copyright 1998, Gaussian, Inc.),
 the Gaussian(R) 94 system (copyright 1995, Gaussian, Inc.),
 the Gaussian 92(TM) system (copyright 1992, Gaussian, Inc.),
 the Gaussian 90(TM) system (copyright 1990, Gaussian, Inc.),
 the Gaussian 88(TM) system (copyright 1988, Gaussian, Inc.),
 the Gaussian 86(TM) system (copyright 1986, Carnegie Mellon
 University), and the Gaussian 82(TM) system (copyright 1983,
 Carnegie Mellon University). Gaussian is a federally registered
 trademark of Gaussian, Inc.
  
 This software contains proprietary and confidential information,
 including trade secrets, belonging to Gaussian, Inc.
  
 This software is provided under written license and may be
 used, copied, transmitted, or stored only in accord with that
 written license.
  
 The following legend is applicable only to US Government
 contracts under FAR:
  
                    RESTRICTED RIGHTS LEGEND
  
 Use, reproduction and disclosure by the US Government is
 subject to restrictions as set forth in subparagraphs (a)
 and (c) of the Commercial Computer Software - Restricted
 Rights clause in FAR 52.227-19.
  
 Gaussian, Inc.
 340 Quinnipiac St., Bldg. 40, Wallingford CT 06492
  
  
 ---------------------------------------------------------------
 Warning -- This program may not be used in any manner that
 competes with the business of Gaussian, Inc. or will provide
 assistance to any competitor of Gaussian, Inc.  The licensee
 of this program is prohibited from giving any competitor of
 Gaussian, Inc. access to this program.  By using this program,
 the user acknowledges that Gaussian, Inc. is engaged in the
 business of creating and licensing software in the field of
 computational chemistry and represents and warrants to the
 licensee that it is not a competitor of Gaussian, Inc. and that
 it will not use this program in any manner prohibited above.
 ---------------------------------------------------------------
  

 Cite this work as:
 Gaussian 16, Revision A.03,
 M. J. Frisch, G. W. Trucks, H. B. Schlegel, G. E. Scuseria, 
 M. A. Robb, J. R. Cheeseman, G. Scalmani, V. Barone, 
 G. A. Petersson, H. Nakatsuji, X. Li, M. Caricato, A. V. Marenich, 
 J. Bloino, B. G. Janesko, R. Gomperts, B. Mennucci, H. P. Hratchian, 
 J. V. Ortiz, A. F. Izmaylov, J. L. Sonnenberg, D. Williams-Young, 
 F. Ding, F. Lipparini, F. Egidi, J. Goings, B. Peng, A. Petrone, 
 T. Henderson, D. Ranasinghe, V. G. Zakrzewski, J. Gao, N. Rega, 
 G. Zheng, W. Liang, M. Hada, M. Ehara, K. Toyota, R. Fukuda, 
 J. Hasegawa, M. Ishida, T. Nakajima, Y. Honda, O. Kitao, H. Nakai, 
 T. Vreven, K. Throssell, J. A. Montgomery, Jr., J. E. Peralta, 
 F. Ogliaro, M. J. Bearpark, J. J. Heyd, E. N. Brothers, K. N. Kudin, 
 V. N. Staroverov, T. A. Keith, R. Kobayashi, J. Normand, 
 K. Raghavachari, A. P. Rendell, J. C. Burant, S. S. Iyengar, 
 J. Tomasi, M. Cossi, J. M. Millam, M. Klene, C. Adamo, R. Cammi, 
 J. W. Ochterski, R. L. Martin, K. Morokuma, O. Farkas, 
 J. B. Foresman, and D. J. Fox, Gaussian, Inc., Wallingford CT, 2016.
 
 ******************************************
 Gaussian 16:  EM64L-G16RevA.03 25-Dec-2016
                12-Aug-2023 
 ******************************************
 %NProcShared=24
 Will use up to   24 processors via shared memory.
 %Chk=input09052022v4.chk
 ------------------------------------------------
 #Opt Freq mp2/def2svp int=UltraFine scf=xqc test
 ------------------------------------------------
 1/18=20,19=15,38=1/1,3;
 2/9=110,12=2,17=6,18=5,40=1/2;
 3/5=43,7=101,11=9,25=1,30=1,71=1,75=-5/1,2,3;
 4//1;
 5/5=2,8=3,13=1,38=5/2,8;
 8/6=4,10=1/1;
 9/15=2,16=-3/6;
 10/5=1/2;
 6/7=2,8=2,9=2,10=2/1;
 7/12=2/1,2,3,16;
 1/18=20,19=15/3(2);
 2/9=110/2;
 99//99;
 2/9=110/2;
 3/5=43,7=101,11=9,25=1,30=1,71=1,75=-5/1,2,3;
 4/5=5,16=3,69=1/1;
 5/5=2,8=3,13=1,38=5/2,8;
 8/6=4,10=1/1;
 9/15=2,16=-3/6;
 10/5=1/2;
 7/12=2/1,2,3,16;
 1/18=20,19=15/3(-8);
 2/9=110/2;
 6/7=2,8=2,9=2,10=2/1;
 99//99;
 --------------------------
 Optimization Cl-simulation
 --------------------------
 Symbolic Z-matrix:
 Charge = -1 Multiplicity = 1
 Cl                    0.        0.        0. 
 

 GradGradGradGradGradGradGradGradGradGradGradGradGradGradGradGradGradGrad
 Berny optimization.
 Initialization pass.
 No Z-matrix variables, so optimization will use Cartesian coordinates.
 Trust Radius=1.00D-01 FncErr=1.00D-07 GrdErr=1.00D-07 EigMax=2.50D+02 EigMin=1.00D-04
 Number of steps in this run=     20 maximum allowed number of steps=    100.
 GradGradGradGradGradGradGradGradGradGradGradGradGradGradGradGradGradGrad

                          Input orientation:                          
 ---------------------------------------------------------------------
 Center     Atomic      Atomic             Coordinates (Angstroms)
 Number     Number       Type             X           Y           Z
 ---------------------------------------------------------------------
      1         17           0        0.000000    0.000000    0.000000
 ---------------------------------------------------------------------
 Stoichiometry    Cl(1-)
 Framework group  OH[O(Cl)]
 Deg. of freedom     0
 Full point group                 OH      NOp  48
 Largest Abelian subgroup         D2H     NOp   8
 Largest concise Abelian subgroup C1      NOp   1
                         Standard orientation:                         
 ---------------------------------------------------------------------
 Center     Atomic      Atomic             Coordinates (Angstroms)
 Number     Number       Type             X           Y           Z
 ---------------------------------------------------------------------
      1         17           0        0.000000    0.000000    0.000000
 ---------------------------------------------------------------------
 Standard basis: def2SVP (5D, 7F)
 There are     7 symmetry adapted cartesian basis functions of AG  symmetry.
 There are     1 symmetry adapted cartesian basis functions of B1G symmetry.
 There are     1 symmetry adapted cartesian basis functions of B2G symmetry.
 There are     1 symmetry adapted cartesian basis functions of B3G symmetry.
 There are     0 symmetry adapted cartesian basis functions of AU  symmetry.
 There are     3 symmetry adapted cartesian basis functions of B1U symmetry.
 There are     3 symmetry adapted cartesian basis functions of B2U symmetry.
 There are     3 symmetry adapted cartesian basis functions of B3U symmetry.
 There are     6 symmetry adapted basis functions of AG  symmetry.
 There are     1 symmetry adapted basis functions of B1G symmetry.
 There are     1 symmetry adapted basis functions of B2G symmetry.
 There are     1 symmetry adapted basis functions of B3G symmetry.
 There are     0 symmetry adapted basis functions of AU  symmetry.
 There are     3 symmetry adapted basis functions of B1U symmetry.
 There are     3 symmetry adapted basis functions of B2U symmetry.
 There are     3 symmetry adapted basis functions of B3U symmetry.
    18 basis functions,    37 primitive gaussians,    19 cartesian basis functions
     9 alpha electrons        9 beta electrons
       nuclear repulsion energy         0.0000000000 Hartrees.
 NAtoms=    1 NActive=    1 NUniq=    1 SFac= 1.00D+00 NAtFMM=   60 NAOKFM=F Big=F
 Integral buffers will be    131072 words long.
 Raffenetti 1 integral format.
 Two-electron integral symmetry is turned on.
 One-electron integrals computed using PRISM.
  48 Symmetry operations used in ECPInt.
 ECPInt:  NShTT=      36 NPrTT=     194 LenC2=      37 LenP2D=     194.
 LDataN:  DoStor=T MaxTD1= 4 Len=   56
 NBasis=    18 RedAO= T EigKep=  1.16D-01  NBF=     6     1     1     1     0     3     3     3
 NBsUse=    18 1.00D-06 EigRej= -1.00D+00 NBFU=     6     1     1     1     0     3     3     3
 ExpMin= 1.68D-01 ExpMax= 1.04D+04 ExpMxC= 1.57D+03 IAcc=3 IRadAn=         5 AccDes= 0.00D+00
 Harris functional with IExCor=  205 and IRadAn=       5 diagonalized for initial guess.
 HarFok:  IExCor=  205 AccDes= 0.00D+00 IRadAn=         5 IDoV= 1 UseB2=F ITyADJ=14
 ICtDFT=  3500011 ScaDFX=  1.000000  1.000000  1.000000  1.000000
 FoFCou: FMM=F IPFlag=           0 FMFlag=      100000 FMFlg1=           0
         NFxFlg=           0 DoJE=T BraDBF=F KetDBF=T FulRan=T
         wScrn=  0.000000 ICntrl=       500 IOpCl=  0 I1Cent=   200000004 NGrid=           0
         NMat0=    1 NMatS0=      1 NMatT0=    0 NMatD0=    1 NMtDS0=    0 NMtDT0=    0
 Petite list used in FoFCou.
 Initial guess orbital symmetries:
       Occupied  (A1G) (A1G) (T1U) (T1U) (T1U) (A1G) (T1U) (T1U)
                 (T1U)
       Virtual   (A1G) (T2G) (T2G) (T2G) (EG) (EG) (T1U) (T1U)
                 (T1U)
 The electronic state of the initial guess is 1-A1G.
 Keep R1 ints in memory in symmetry-blocked form, NReq=4947875.
 Requested convergence on RMS density matrix=1.00D-08 within  32 cycles.
 Requested convergence on MAX density matrix=1.00D-06.
 Requested convergence on             energy=1.00D-06.
 No special actions if energy rises.
 SCF Done:  E(RHF) =  -459.371240242     A.U. after    6 cycles
            NFock=  6  Conv=0.77D-08     -V/T= 1.9996
 QCSCF skips out because SCF is already converged.
 ExpMin= 1.68D-01 ExpMax= 1.04D+04 ExpMxC= 1.57D+03 IAcc=3 IRadAn=         5 AccDes= 0.00D+00
 HarFok:  IExCor=  205 AccDes= 0.00D+00 IRadAn=         5 IDoV=-2 UseB2=F ITyADJ=14
 ICtDFT= 12500011 ScaDFX=  1.000000  1.000000  1.000000  1.000000
 Range of M.O.s used for correlation:     6    18
 NBasis=    18 NAE=     9 NBE=     9 NFC=     5 NFV=     0
 NROrb=     13 NOA=     4 NOB=     4 NVA=     9 NVB=     9
 Fully direct method using O(ONN) memory.
 JobTyp=1 Pass  1:  I=   6 to   9 NPSUse=  8 ParTrn=T ParDer=T DoDerP=T.
 Spin components of T(2) and E(2):
     alpha-alpha T2 =       0.5601915329D-02 E2=     -0.1739616518D-01
     alpha-beta  T2 =       0.3011993192D-01 E2=     -0.9500116609D-01
     beta-beta   T2 =       0.5601915329D-02 E2=     -0.1739616518D-01
 ANorm=    0.1020452724D+01
 E2 =    -0.1297934965D+00 EUMP2 =    -0.45950103373815D+03
          IDoAtm=1
          Differentiating once with respect to electric field.
                with respect to dipole field.
          Differentiating once with respect to nuclear coordinates.
 Keep R1 ints in memory in symmetry-blocked form, NReq=4948251.
          There are     1 degrees of freedom in the 1st order CPHF.  IDoFFX=0 NUNeed=     1.
 LinEq1:  Iter=  0 NonCon=     1 RMS=3.85D-03 Max=1.95D-02 NDo=     1
 AX will form     1 AO Fock derivatives at one time.
 LinEq1:  Iter=  1 NonCon=     1 RMS=3.52D-04 Max=2.91D-03 NDo=     1
 LinEq1:  Iter=  2 NonCon=     1 RMS=2.66D-05 Max=1.21D-04 NDo=     1
 LinEq1:  Iter=  3 NonCon=     1 RMS=2.39D-08 Max=2.15D-07 NDo=     1
 LinEq1:  Iter=  4 NonCon=     1 RMS=1.08D-10 Max=9.09D-10 NDo=     1
 LinEq1:  Iter=  5 NonCon=     0 RMS=1.33D-20 Max=8.67D-20 NDo=     1
 Linear equations converged to 1.000D-10 1.000D-09 after     5 iterations.
 End of Minotr F.D. properties file   721 does not exist.
 End of Minotr F.D. properties file   722 does not exist.
 End of Minotr F.D. properties file   788 does not exist.

 **********************************************************************

            Population analysis using the SCF density.

 **********************************************************************

 Orbital symmetries:
       Occupied  (A1G) (A1G) (T1U) (T1U) (T1U) (A1G) (T1U) (T1U)
                 (T1U)
       Virtual   (A1G) (T2G) (T2G) (T2G) (EG) (EG) (T1U) (T1U)
                 (T1U)
 The electronic state is 1-A1G.
 Alpha  occ. eigenvalues -- -104.37292 -10.13286  -7.60702  -7.60702  -7.60702
 Alpha  occ. eigenvalues --   -0.66070  -0.08695  -0.08695  -0.08695
 Alpha virt. eigenvalues --    0.97819   1.43003   1.43003   1.43003   1.43003
 Alpha virt. eigenvalues --    1.43003   1.49410   1.49410   1.49410
          Condensed to atoms (all electrons):
               1
     1  Cl  18.000000
 Mulliken charges:
               1
     1  Cl  -1.000000
 Sum of Mulliken charges =  -1.00000
 Mulliken charges with hydrogens summed into heavy atoms:
               1
     1  Cl  -1.000000
 Electronic spatial extent (au):  <R**2>=             32.8815
 Charge=             -1.0000 electrons
 Dipole moment (field-independent basis, Debye):
    X=              0.0000    Y=              0.0000    Z=              0.0000  Tot=              0.0000
 Quadrupole moment (field-independent basis, Debye-Ang):
   XX=            -14.7423   YY=            -14.7423   ZZ=            -14.7423
   XY=             -0.0000   XZ=             -0.0000   YZ=             -0.0000
 Traceless Quadrupole moment (field-independent basis, Debye-Ang):
   XX=              0.0000   YY=              0.0000   ZZ=              0.0000
   XY=             -0.0000   XZ=             -0.0000   YZ=             -0.0000
 Octapole moment (field-independent basis, Debye-Ang**2):
  XXX=              0.0000  YYY=              0.0000  ZZZ=              0.0000  XYY=              0.0000
  XXY=              0.0000  XXZ=              0.0000  XZZ=              0.0000  YZZ=              0.0000
  YYZ=              0.0000  XYZ=              0.0000
 Hexadecapole moment (field-independent basis, Debye-Ang**3):
 XXXX=            -15.5414 YYYY=            -15.5414 ZZZZ=            -15.5414 XXXY=             -0.0000
 XXXZ=             -0.0000 YYYX=             -0.0000 YYYZ=             -0.0000 ZZZX=             -0.0000
 ZZZY=             -0.0000 XXYY=             -5.1805 XXZZ=             -5.1805 YYZZ=             -5.1805
 XXYZ=             -0.0000 YYXZ=             -0.0000 ZZXY=             -0.0000
 N-N= 0.000000000000D+00 E-N=-1.101807741218D+03  KE= 4.595620047865D+02
 Symmetry AG   KE= 3.234571246022D+02
 Symmetry B1G  KE= 2.511902632319D-60
 Symmetry B2G  KE= 2.029137534631D-60
 Symmetry B3G  KE= 5.571611557106D-37
 Symmetry AU   KE= 0.000000000000D+00
 Symmetry B1U  KE= 4.536829339478D+01
 Symmetry B2U  KE= 4.536829339478D+01
 Symmetry B3U  KE= 4.536829339478D+01
  48 Symmetry operations used in ECPInt.
 ECPInt:  NShTT=      36 NPrTT=     194 LenC2=      37 LenP2D=     194.
 LDataN:  DoStor=T MaxTD1= 5 Len=  102
 Calling FoFJK, ICntrl=  10002127 FMM=F ISym2X=1 I1Cent= 0 IOpClX= 0 NMat=1 NMatS=1 NMatT=0.
 ***** Axes restored to original set *****
 -------------------------------------------------------------------
 Center     Atomic                   Forces (Hartrees/Bohr)
 Number     Number              X              Y              Z
 -------------------------------------------------------------------
      1       17          -0.000000000   -0.000000000   -0.000000000
 -------------------------------------------------------------------
 Cartesian Forces:  Max     0.000000000 RMS     0.000000000

 GradGradGradGradGradGradGradGradGradGradGradGradGradGradGradGradGradGrad
 Berny optimization.
 Search for a local minimum.
 Step number   1 out of a maximum of   20
 All quantities printed in internal units (Hartrees-Bohrs-Radians)
 Mixed Optimization -- En-DIIS/RFO-DIIS
 Second derivative matrix not updated -- first step.
 The second derivative matrix:
                          X1        Y1        Z1
           X1           0.00000
           Y1           0.00000   0.00000
           Z1           0.00000   0.00000   0.00000
 ITU=  0
     Eigenvalues --- 
 RFO step:  Lambda=-5.96046448D-09 EMin= 0.00000000D+00
 ClnCor:  largest displacement from symmetrization is 0.00D+00 for atom     0.
 Linear search not attempted -- first point.
 ClnCor:  largest displacement from symmetrization is 0.00D+00 for atom     0.
 B after Tr=     0.000000    0.000000    0.000000
         Rot=    1.000000    0.000000    0.000000    0.000000 Ang=   0.00 deg.
 Variable       Old X    -DE/DX   Delta X   Delta X   Delta X     New X
                                 (Linear)    (Quad)   (Total)
    X1        0.00000  -0.00000   0.00000   0.00000   0.00000   0.00000
    Y1        0.00000  -0.00000   0.00000   0.00000   0.00000   0.00000
    Z1        0.00000  -0.00000   0.00000   0.00000   0.00000   0.00000
         Item               Value     Threshold  Converged?
 Maximum Force            0.000000     0.000450     YES
 RMS     Force            0.000000     0.000300     YES
 Maximum Displacement     0.000000     0.001800     YES
 RMS     Displacement     0.000000     0.001200     YES
 Predicted change in Energy=-0.000000D+00
 Optimization completed.
    -- Stationary point found.
 GradGradGradGradGradGradGradGradGradGradGradGradGradGradGradGradGradGrad

                          Input orientation:                          
 ---------------------------------------------------------------------
 Center     Atomic      Atomic             Coordinates (Angstroms)
 Number     Number       Type             X           Y           Z
 ---------------------------------------------------------------------
      1         17           0        0.000000    0.000000    0.000000
 ---------------------------------------------------------------------
 Stoichiometry    Cl(1-)
 Framework group  OH[O(Cl)]
 Deg. of freedom     0
 Full point group                 OH      NOp  48
 Largest Abelian subgroup         D2H     NOp   8
 Largest concise Abelian subgroup C1      NOp   1
                         Standard orientation:                         
 ---------------------------------------------------------------------
 Center     Atomic      Atomic             Coordinates (Angstroms)
 Number     Number       Type             X           Y           Z
 ---------------------------------------------------------------------
      1         17           0        0.000000    0.000000    0.000000
 ---------------------------------------------------------------------

 Test job not archived.
 1\1\GINC-GRANADO-COMPUTE-1\FOpt\RMP2-FC\def2SVP\Cl1(1-)\ROOT\12-Aug-20
 23\0\\#Opt Freq mp2/def2svp int=UltraFine scf=xqc test\\Optimization C
 l-simulation\\-1,1\Cl,0.,0.,0.\\Version=EM64L-G16RevA.03\State=1-A1G\H
 F=-459.3712402\MP2=-459.5010337\RMSD=7.713e-09\RMSF=0.000e+00\Dipole=0
 .,0.,0.\PG=OH [O(Cl1)]\\@


      THE ONE-EYED VIEW OF OUR UNIVERSE SAYS YOU MUST NOT LOOK
      FAR AFIELD FOR PROBLEMS.  SUCH PROBLEMS MAY NEVER ARRIVE. 
      INSTEAD, TEND TO THE WOLF WITHIN YOUR FENCES.
      THE PACKS RANGING OUTSIDE MAY NOT EVEN EXIST.

                              -- THE AZHAR BOOK SHAMRA I:4
                                 CHILDREN OF DUNE, BY FRANK HERBERT
 Job cpu time:       0 days  0 hours  9 minutes  8.5 seconds.
 Elapsed time:       0  -------------------------------------- File lengths (MBytes):  RWF=      6 Int=      0 D2E=      0 Chk=      2 Scr=      1
 Normal termination of Gaussian 16 at Sat Aug 12 23:38:22 2023.
 Link1:  Proceeding to internal job step number  2.
 ----------------------------------------------------------------------
 #N Geom=AllCheck Guess=TCheck SCRF=Check Test GenChk RMP2(FC)/def2SVP 
 Freq
 ----------------------------------------------------------------------
 1/10=4,29=7,30=1,38=1,40=1/1,3;
 2/12=2,40=1/2;
 3/5=43,7=101,11=1,14=-4,25=1,30=1,70=2,71=2,75=-5,116=1,140=1/1,2,3;
 4/5=101/1;
 5/5=2,8=3,13=1,38=6,98=1/2,8;
 8/6=3,8=1,10=1,19=11,30=-1/1;
 9/15=3,16=-3/6;
 11/6=1,8=1,15=11,17=1 Structure from the checkpoint file:  "input09052022v4.chk"
 --------------------------
 Optimization Cl-simulation
 --------------------------
 Charge = -1 Multiplicity = 1
 No Z-Matrix found in chk file; cartesian coordinates used.
  Cl   Structure from the checkpoint file:  "input09052022v4.chk"
 --------------------------
 Optimization Cl-simulation
 ----------------------
 GradGradGradGradGradGradGradGradGradGradGradGradGradGradGradGradGradGrad
 Berny optimization.
 Initialization pass.
 Trust Radius=3.00D-01 FncErr=1.00D-07 GrdErr=1.00D-07 EigMax=2.50D+02 EigMin=1.00D-04
 Number of steps in this run=      
 GradGradGradGradGradGradGradGradGradGradGradGradGradGradGradGradGradGrad
 Berny optimization.
 Initialization pass.
                          Input orientation:                          
 ---------------------------------------------------------------------
 Center     Atomic      Atomic             Coordinates (Angstroms)
 Number     Number       Type                            Input orientation:                          
 ---------------------------------------------------------------------
 Center     Atomic      Atomic             Coordinates (Angstroms)
  S Stoichiometry    Cl(1-)
 Framework gr Stoichiometry    Cl(1-)
 Framework group  OH[O(Cl)]
 Deg. of freedom     0
 Full point group                 OH      NOp  48
 Largest Abelian subgroup         D2H     NOp   8
 Largest concise Abelian subgroup C1      NOp   1
               Stoichiometry    Cl(1-)
 Framework group  OH[O(Cl)]
 Deg. of freedom     0
 Full point group                 OH      NOp  48
 Largest Abelian subgroup         D2H     NOp   8
 Largest concise Abelian subgroup C1      NOp   1
                         Standard orientation:                         
 ---------------------------------------------------------------------
 Center     Atomic      Atomic             Coordinates (Angstroms)
 Number     Number       Type             Standard basis: def2SVP (5D, 7F)
 There are     7 symmetry adapted cartesian basis functions of AG  symmetry.
 There are     1 symmetry adapted cartesian basis functions of B1G symmetry.
 There are     1 symmetry adapted cartesian basis fu Standard basis: def2SVP (5D, 7F)
 There are     7 symmetry adapted cartesian basis functions of AG  symmetry.
 There are     1 symmetry adapted cartesian basis functions of B1G symmetry.
 There are     1 symmetry adapted cartesian basis functions of B2G symmetry.
 There are     1 symmetry adapted cartesian basis functions of B3G symmetry.
 There are     0 symmetry adapted cartesian basis functions of AU  symmetry.
 There are     3 symmetry adapted cartesian basis functions of B1U symmetry.
 There are     3 symmetry adapted cartesian basis functions of B2U symmetry.
 There are     3 symmetry adapted cartesian basis functions of B3U symmetry.
 There are     6 symmetry adapted basis functions of AG  symmetry.
 There are     1 symmetry adapted basis functions of B1G symmetry.
 There are     1 symmetry adapted basis functions of B2G symmetry.
 There are     1 symmetry adapted basis functions of B3G symmetry.
 There are     0 symmetry adapted basis functions of AU  symmetry.
 There are     3 symmetry adapted basis functions of B1U symmetry.
 There are     3 symmetry adapted basis functions of B2U symmetry.
 There are     3 symmetry adapted basis functions of B3U symmetry.
    18 basis functions,    37 primitive gaussians,    19 cartesian basis functions
     9 alpha electrons        9 beta electrons
       nuclear repulsion energy One-ele  48 Symmetry operations used in ECPIn  48 Symmetry operations used in ECPInt.
 ECPInt:  NShTT=      36 NPrTT=     194 LenC2=      37 LenP2D=     194.
  NBasis=    18 RedAO= T EigKep=  1.16D NBasis=    18 RedAO= T EigKep=  1.16D-01  NBF=     6     1     1     1     0     3     3     3
 NBsUse=    18 1.00D-06 EigRej= -1.00D+00 NBFU=     6      Initial guess from the checkpoint fil Initial guess from the checkpoint file:  "input09052022v4.chk"
 B after Tr=     0.000000    0.000000    0.000000
         Rot=    1.000000    0.000000     Initial guess orbital symmetries:
       Occupied  (A1G) (A1G) (T1U) (T1       Occupied  (A1G) (A1G) (T1U) (T1U) (T1U) (A1G) (T1U) (T1U)
                 (T1U)
       Virtual   (A1G) (T2G) (T2G) (T2G) (EG) (E Keep R1 ints in memory in symmetry-bl Keep R1 ints in memory in Requested convergence on RMS density  Requested convergence on RMS density matrix=1.00D-08 within  32 cycles.
 Requested convergence on MAX density matrix=1.00D-06.
 Requested convergence on             energy=1.00D-06. Skip diagonalization as Alpha Fock ma Skip diagonalization as Alpha Fock matrix is already diagonal.
 SCF Done:  E(RHF) =  -459.371240242     A.U. after    1 cycles
            NFock=  1  Conv=0.00D+00     -V/T= 1.9996
 QCSCF skips out because SCF is already converged.
 ExpMin= 1.68D-01 ExpMax= 1.04D+04 ExpMxC= 1.57D+03 IAcc=3 IRadAn=         5 AccDes= 0.00D+00
 HarFok:  IExCor=  205 AccDes= 0.00D+00 IRadAn=         5 IDoV=-2 UseB2=F ITyADJ=14
 ICtDFT= 12500011 ScaDFX=  1 Range of M.O.s used for correlation:  Range of M.O.s used for correlation:     6    18
 NBasis=    18 NAE=     9 NBE=     9 NFC=     5 NFV=     0
 NROrb=     13 NOA=   Disk-based method using ON**2 memory  Disk-based method using ON**2 memory for  4 occupieds at a time.
 Permanent disk used for amplitudes=        7857 words.
 Estimated scratch disk usage=      814596 words.
 Actual    scratch disk usage=      814596 words.
 GetIJB would need an additional   151924731 words of memory to use all  24 processors.
 JobTyp=1 Pass  1:  I=   6 to   9 NPSUse=  9 ParTrn=T ParDer=T DoDerP=T.
 (r S Spin components of T(2 Spin components of T(2) and E(2):
     alpha-alpha T2 =       0.5601915335D-02 E2=     -0.1739616519D-01
     alpha-beta  T2 =       0.3011993195D-01 E2=     -0.9500116614D-01
     beta-beta   T2 =       0.5601915335D-02 E2=     -0.1739616519D-01
 ANorm=    0.1020452724D+01
 E2 =    -0.1297934965D+00 EUMP2 =     48 Symmetry operation  48 Symmetry operations used in ECPInt.
 ECPInt:  NShTT=      36 NPrTT=     194 LenC2=      37 LenP2D=     194.
 LDataN:  DoStor G2DrvN: will do     2  G2DrvN: will do     2 centers at a time, making    1 passes.
 Calling FoFCou, ICntrl=  3107 FMM=F I1Cent= End of G2Drv F.D. prop End of G2Drv F.D. properties file   721 does not exist.
 End of G2Drv F.D. properties file   722 does not exist.
 End of G2Drv F.D. properties file   788 does not exist.
          IDoAtm=1
          Differentiating once with respect to electric field.
                with respect to dipole field.
          Differentiating once with respect to nuclear coordinates.
 Keep R1 ints in memory in symmetry-block          There are              There are     6 degrees of freedom in the 1st order CPHF.  IDoFFX=6 NUNeed=     6.
      3 vectors produced by pass  0 Test12= 1.35D-15 1.67D-08 XBig12= 1.04D+00 6.02D-01.
 AX will form     3 AO Fock derivatives at one time.
      3 vectors produced by pass  1 Test12= 1.35D-15 1.67D-08 XBig      3 vectors produce      3 vectors produced by pass  2 Test12= 1.35D-15 1.67D-08 XBig      3 vectors produce      3 vectors produced by pass  3 Test12= 1.35D-15 1.67D-08 XBig      3 vectors produce      3 vectors produced by pass  4 Test12= 1.35D-15 1.67D-08 XBig InvSVY:  IOpt=1 It=  1 InvSVY:  IOpt=1 It=  1 EMax= 2.22D-16
 Solved reduced A of dimension     End of Minotr F.D. pro End of Minotr F.D. properties file   721 does not exist.
 End of Minotr F.D. properties file   722 does not exist.
 End of Minotr F.D. properties file   788 does not exist.
 MDV=   104857600.
 Form MO integral derivatives with frozen-active canonical formalism.
 Discarding MO integrals.
 Reordered first order wavefunction length =        13122
 In DefCFB: NBatch=  1 ICI=  9 ICA=  9 LFMax=  9
            Large arrays: LIAPS=      110808 LIA Semi-Direct transforma Semi-Direct transformation.
 ModeAB=           2 MOrb=             9 LenV=     104679387
 LASXX=        14355 LTotXX=       14355 LenRXX=       14355
 LTotAB=       17901 MaxLAS=       30780 LenRXY=       30780
 NonZer=       34668 LenScr=      785920 LnRSAI=           0
 LnScr1=           0 LExtra=           0 Total=       831055
 MaxDsk=          -1 SrtSym=           F ITran=            4
 JobTyp=0 Pass  1:  I=   1 to   9.
 (rs|ai) integrals S Spin components of T(2 Spin components of T(2 Spin components of T(2) and E(2):
     alpha-alpha T2 =       0.5601915335D-02 E2=     -0.1739616519D-01
     alpha-beta  T2 =       0.3011993195D-01 E2=     -0.9500116614D-01
     beta-beta   T2 =       0.5601915335D-02 E2=     -0.1739616519D-01
 ANorm=    0.1443138083D+01
 E2 =    -0.1297934965D+00 EUMP2 =             IDoAtm=1
          Differentiating once with respect to electric field.
                with respect to dipole field.
          Differentiating once with respect to nuclear coordinates.
          There are              There are     1 degrees of freedom in LinEq1:  Iter=  0 NonC LinEq1:  Iter=  0 NonC LinEq1:  Iter=  0 NonCon=     1 RMS=3.85D-03 Max=1.95D-02 NDo=     1
 LinEq1:  Iter=  1 NonCon=     1 RMS=3.52D-04 Max=2.91D-03 NDo=     1
 LinEq1:  Iter=  2 NonCon=     1 RMS=2.66D-05 Max=1.21D-04 NDo=     1
 LinEq1:  Iter=  3 NonCon=     1 RMS=2.39D-08 Max=2.15D-07 NDo=     1
 LinEq1:  Iter=  4 NonCon=     1 RMS=1.08D-10 Max=9.09D-10 NDo=     1
 LinEq1:  Iter=  5 NonCon=     0 RMS=3.35D-20 Max=2.21D-19 NDo=     1
 Linear equations converged t End of Minotr F.D. pro End of Minotr F.D. pro End of Minotr F.D. properties file   721 does not exist.
 End of Minotr F.D. properties file   722 does not exist.
 End of Minotr F.D. properties file Symmetrizing basis der Symmetrizing basis deriv contribution to polar:
 IMax=3 J G2DrvN: will do     2  G2DrvN: will do     2 centers at a time, making    1 passes.
 Calling FoFCou, ICnt End of G2Drv F.D. prop End of G2Drv F.D. prop End of G2Drv F.D. properties file   721 does not exist.
 End of G2Drv F.D. properties file   722 does not exist.
 End of G R R2 and R3 integrals wi R2 and R3 integrals wi R2 and R3 integra DD1Dir will call FoFMe DD1Dir will call FoFMe DD1Dir will call FoFMem   1 times, MxPai D Discarding MO integrals.

 ****************** Discarding MO integrals.

 **********************************************************************

            Population analysis using the SCF density.

 ***********************************************       Occupied  (A1G) (A1G) (T1U) (T1U) (T1U)       Occupied  (A1G) (A1G) (T1U) (T1U) (T1U) (A1G) (T1U) (T1U)
                 (T1U)
       Virtual   (A1G) (T2G) (T2G) (EG) (T2G) (EG) (T1U) (T1U)
                 (T1U)
 The electronic state is 1-A1G.
 Alpha  occ. eigenvalues -       Occupied  (A1G) (A1G) (T1U) (T1U) (T1U) (A1G) (T1U) (T1U)
                 (T1U)
       Virtual   (A1G) (T2G) (T2G) (EG) (T2G) (EG) (T1U) (T1U)
                 (T1U)
 The electronic state is 1-A1G.
 Alpha  occ. eigenvalues -- -104.37292 -10.13286  -7.60702  -7.60702  -7.60702
 Alpha  occ. eigenvalues --   -0.66070  -0.08695  -0.08695  -0.08695
 Alpha virt. eigenvalues --    0.97819   1.43003   1.43003   1.43003   1.43003
 Alpha virt. eigenvalues --    1.43003   1.49410   1.49410   1.49410
          Condensed to atoms (all electrons):
               1
     1  Cl  18.000000
 Mulliken charges:
               1
     1  Cl  -1.000000
 Sum of Mulliken charges =  -1.00000
 Mulliken charges with hydrogens summed in Electronic spatial extent (au):  <R**2>=             32.8815
 Charge=             -1.0000 electrons
 Dipole moment (field-independent basis, Debye):
    X=              0.0000    Y=              0.0000    Z=              0.0000  To Electronic spatial extent (au):  <R**2>=             32.8815
 Charge=             -1.0000 electrons
 Dipole moment (field-independent basis, Debye):
    X=              0.0000    Y=              0.0000    Z=              0.0000  Tot=              0.0000
 Quadrupole moment (field-independent basis, Debye-Ang):
   XX=            -14.7423   YY=            -14.7423   ZZ=            -14.7423
   XY=             -0.0000   XZ=             -0.0000   YZ=             -0.0000
 Traceless Quadrupole moment (field-independent basis, Debye-Ang):
   XX=             -0.0000   YY=             -0.0000   ZZ=              0.0000
   XY=             -0.0000   XZ=             -0.0000   YZ=             -0.0000
 Octapole moment (field-independent basis, Debye-Ang**2):
  XXX=              0.0000  YYY=              0.0000  ZZZ=              0.0000  XYY=              0.0000
  XXY=              0.0000  XXZ=              0.0000  XZZ=              0.0000  YZZ=              0.0000
  YYZ=              0.0000  XYZ=              0.0000
 Hexadecapole moment (field-independent basis, Debye-Ang**3):
 XXXX=            -15.5414 YYYY=            -15.5414 ZZZZ=            -15.5414 XXXY=             -0.0000
 XXXZ=             -0.0000 YYYX=             -0.0000 YYYZ=             -0.0000 ZZZX=             -0.0000
 ZZZY=             -0.000 Symmetry AG   KE= 3.234571246022D+02
 Symmetry B1G  KE= 2.611126853678D-59
 Symmetry B2G  KE= 2.153697176145D-59
 Symmetry B3G  KE= 5.571611557106D-37
 Symmetry AU   KE= 0.000000000000D+00
 Symmetry B1U  KE= 4.536829339478D+01
 Symmetry B2U  KE= 4.536829339478D+01
 Symmetry B3U  KE= 4.536829339478D+01
  Exact polarizability:   5.870   0.000   5.870  -0.000   0.000   5.870
 Approx polarizability:     48 Symmetry operations used in ECPInt.
 ECPI  48 Symmetry operations used in ECPInt.
 ECPInt:  NShTT=      36 NPrTT=     194 LenC2=      37 LenP2D=    Calling FoFJK, ICntrl=  10100127 FMM=F ISym2X Calling FoFJK, ICntrl=  10100127 FMM=F ISym2X= Full mass-weighted force constant matrix:
 Lo Full mass-weighted force constant matrix:
 Low frequencies ---   -0.0066   -0.0066   -0.0066
 Diagonal vibrational polarizability:
        0.0000000       0.0000000       0.0000000
 Harmonic frequencies (cm**-1), IR intensities (KM Full mass-weighted force constant matrix:
 Low frequencies ---   -0.0066   -0.0066   -0.0066
 Diagonal vibrational polarizability:
        0.0000000       0.0000000       0.0000000
 Harmonic frequencies (cm**-1), IR intensities (KM/Mole), Raman scattering
 activities (A**4/AMU), depolarization ratios for plane and unpolarized
 incident light, reduced masses (AMU), force constants (mDyne/A),
 and normal coordinates:

 -------------------
 - Thermochemistry -
 -------------------
 Temperature   298.150 Kelvin.  Pressure   1.00000 Atm.
 Atom     1 has atomic number 17 and mass  34.96885
 Molecular mass:    34.96885 amu.
 Zero-point vibrational energy          0.0 (Joules/Mol)
                                    0.00000 (Kcal/Mol)
 Vibrational temperatures: 
          (Kelvin)
 
 Zero-point correction=                           0.000000 (Hartree/Particle)
 Thermal correction to Energy=                    0.001416
 Thermal correction to Enthalpy=                  0.002360
 Thermal correction to Gibbs Free Energy=        -0.015023
 Sum of electronic and zero-point Energies=           -459.501034
 Sum of electronic and thermal Energies=              -459.499617
 Sum of electronic and thermal Enthalpies=            -459.498673
 Sum of electronic and thermal Free Energies=         -459.516056
 
                     E (Thermal)             CV                S
                      KCal/Mol        Cal/Mol-Kelvin    Cal/Mol-Kelvin
 Total                    0.889              2.981             36.586
 Electronic               0.000              0.000              0.000
 Translational            0.889              2.981             36.586
 Rotational               0.000              0.000              0.000
 Vibrational              0.000              0.000              0.000
                       Q            Log10(Q)             Ln(Q)
 Total Bot       0.812786D+07          6.909976         15.910808
 Total V=0       0.812786D+07          6.909976         15.910808
 Vib (Bot)       0.100000D+01          0.000000          0.000000
 Vib (V=0)       0.100000D+01          0.000000          0.000000
 Electronic      0.100000D+01          0.000000          0.000000
 Translational   0.812786D+07          6.909976         15.910808
 Rotational      0.100000D+01          0.000000          0.000000
 ***** Axes restored to original set *****
 -------------------------------------------------------------------
 Center     Atomic                   Forces (Hartrees/Bohr)
 Number     Number              X              Y              Z
 -------------------------------------------------------------------
      1       17          -0.000000000   -0.000000000   -0.000000000
 -------------------------------------------------------------------
 Cartesian Forces:  Max     0.000000000 RMS     0.000000000

 GradGradGradGradGradGradGradGradGradGradGradGradGradGradGradGradGradGrad
 Berny optimization.
 Search for a local minimum.
 Step number   1 out of a maximum of    2
 All quantities printed in internal units (Hartrees-Bohrs-Radians)
 Second derivative matrix not updated -- analytic derivatives used.
 The second derivative matrix:
                          X1        Y1        Z1
           X1          -0.00000
           Y1          -0.00000  -0.00000
           Z1          -0.00000   0.00000  -0.00000
 ITU=  0
     Eigenvalues --- 
 Angle between quadratic step and forces=  90.00 degrees.
 ClnCor:  largest displacement from symmetrization is 0.00D+00 for atom     0.
 Linear search not attempted -- first point.
 ClnCor:  largest displacement from symmetrization is 0.00D+00 for atom     0.
 B after Tr=     0.000000    0.000000    0.000000
         Rot=    1.000000    0.000000    0.000000    0.000000 Ang=   0.00 deg.
 Variable       Old X    -DE/DX   Delta X   Delta X   Delta X     New X
                                 (Linear)    (Quad)   (Total)
    X1        0.00000  -0.00000   0.00000   0.00000   0.00000   0.00000
    Y1        0.00000  -0.00000   0.00000   0.00000   0.00000   0.00000
    Z1        0.00000  -0.00000   0.00000   0.00000   0.00000   0.00000
         Item               Value     Threshold  Converged?
 Maximum Force            0.000000     0.000450     YES
 RMS     Force            0.000000     0.000300     YES
 Maximum Displacement     0.000000     0.001800     YES
 RMS     Displacement     0.000000     0.001200     YES
 Predicted change in Energy=-0.000000D+00
 Optimization completed.
    -- Stationary point found.
 GradGradGradGradGradGradGradGradGradGradGradGradGradGradGradGradGradGrad

 Dipole is zero, so no output in dipole orientation.

 ----------------------------------------------------------------------

 Electric dipole moment (input orientation):
 (Debye = 10**-18 statcoulomb cm , SI units = C m)
                  (au)            (Debye)         (10**-30 SI)
   Tot        0.000000D+00      0.000000D+00      0.000000D+00
   x          0.000000D+00      0.000000D+00      0.000000D+00
   y          0.000000D+00      0.000000D+00      0.000000D+00
   z          0.000000D+00      0.000000D+00      0.000000D+00

 Dipole polarizability, Alpha (input orientation).
 (esu units = cm**3 , SI units = C**2 m**2 J**-1)
 Alpha(0;0):
               (au)            (10**-24 esu)      (10**-40 SI)
   iso        0.586982D+01      0.869817D+00      0.967802D+00
   aniso      0.000000D+00      0.000000D+00      0.000000D+00
   xx         0.586982D+01      0.869817D+00      0.967802D+00
   yx         0.000000D+00      0.000000D+00      0.000000D+00
   yy         0.586982D+01      0.869817D+00      0.967802D+00
   zx         0.000000D+00      0.000000D+00      0.000000D+00
   zy         0.000000D+00      0.000000D+00      0.000000D+00
   zz         0.586982D+01      0.869817D+00      0.967802D+00

 ----------------------------------------------------------------------

 Test job not archived.
 1\1\GINC-GRANADO-COMPUTE-1\Freq\RMP2-FC\def2SVP\Cl1(1-)\ROOT\12-Aug-20
 23\0\\#N Geom=AllCheck Guess=TCheck SCRF=Check Test GenChk RMP2(FC)/de
 f2SVP Freq\\Optimization Cl-simulation\\-1,1\Cl,0.,0.,0.\\Version=EM64
 L-G16RevA.03\State=1-A1G\HF=-459.3712402\MP2=-459.5010337\RMSD=0.000e+
 00\RMSF=0.000e+00\Thermal=0.0014163\Dipole=0.,0.,0.\DipoleDeriv=-1.,0.
 ,0.,0.,-1.,0.,0.,0.,-1.\Polar=5.8698173,0.,5.8698173,0.,0.,5.8698173\P
 G=OH [O(Cl1)]\NImag=0\\0.,0.,0.,0.,0.,0.\\0.,0.,0.\\\@


 PERICLES, SOPHOCLES,
 PELOPONESIAN WAR,
 FRENCH VERBS, LATIN VERBS
 H2SO4.
 Job cpu time:       0 days  0 hours 16 minutes 16.7 seconds.
 Elapsed time:       0 days  0 hours  5 minutes 18.3 seconds.
 File lengths (MBytes):  RWF=     13 Int=      0 D2E=      0 Chk=      2 Scr=      1
 Normal termination of Gaussian 16 at Sat Aug 12 23:43:42 2023.
:43:41 2023.
CE FICTION.
 Job cpu time:       0 days  0 hours 15 minutes 58.6 seconds.
 Elapsed time:       0 days  0 hours  5 minutes 18.0 seconds.
 File lengths (MBytes):  RWF=     13 Int=      0 D2E=      0 Chk=      2 Scr=      1
 Normal termination of Gaussian 16 at Sat Aug 12 23:43:35 2023.
