 Entering Gaussian System, Link 0=g16
 Input=input.gjf
 Output=input.log
 Initial command:
 /opt/ohpc/pub/apps/gaussian/G16x86_64_legacy_CPUs_linux_binary/g16/l1.exe "/tmp/Gau-66848.inp" -scrdir="/tmp/"
 Entering Link 1 = /opt/ohpc/pub/apps/gaussian/G16x86_64_legacy_CPUs_linux_binary/g16/l1.exe PID=     66653.
  
 Copyright (c) 1988,1990,1992,1993,1995,1998,2003,2009,2016,
            Gaussian, Inc.  All Rights Reserved.
  
 This is part of the Gaussian(R) 16 program.  It is based on
 the Gaussian(R) 09 system (copyright 2009, Gaussian, Inc.),
 the Gaussian(R) 03 system (copyright 2003, Gaussian, Inc.),
 the Gaussian(R) 98 system (copyright 1998, Gaussian, Inc.),
 the Gaussian(R) 94 system (copyright 1995, Gaussian, Inc.),
 the Gaussian 92(TM) system (copyright 1992, Gaussian, Inc.),
 the Gaussian 90(TM) system (copyright 1990, Gaussian, Inc.),
 the Gaussian 88(TM) system (copyright 1988, Gaussian, Inc.),
 the Gaussian 86(TM) system (copyright 1986, Carnegie Mellon
 University), and the Gaussian 82(TM) system (copyright 1983,
 Carnegie Mellon University). Gaussian is a federally registered
 trademark of Gaussian, Inc.
  
 This software contains proprietary and confidential information,
 including trade secrets, belonging to Gaussian, Inc.
  
 This software is provided under written license and may be
 used, copied, transmitted, or stored only in accord with that
 written license.
  
 The following legend is applicable only to US Government
 contracts under FAR:
  
                    RESTRICTED RIGHTS LEGEND
  
 Use, reproduction and disclosure by the US Government is
 subject to restrictions as set forth in subparagraphs (a)
 and (c) of the Commercial Computer Software - Restricted
 Rights clause in FAR 52.227-19.
  
 Gaussian, Inc.
 340 Quinnipiac St., Bldg. 40, Wallingford CT 06492
  
  
 ---------------------------------------------------------------
 Warning -- This program may not be used in any manner that
 competes with the business of Gaussian, Inc. or will provide
 assistance to any competitor of Gaussian, Inc.  The licensee
 of this program is prohibited from giving any competitor of
 Gaussian, Inc. access to this program.  By using this program,
 the user acknowledges that Gaussian, Inc. is engaged in the
 business of creating and licensing software in the field of
 computational chemistry and represents and warrants to the
 licensee that it is not a competitor of Gaussian, Inc. and that
 it will not use this program in any manner prohibited above.
 ---------------------------------------------------------------
  

 Cite this work as:
 Gaussian 16, Revision A.03,
 M. J. Frisch, G. W. Trucks, H. B. Schlegel, G. E. Scuseria, 
 M. A. Robb, J. R. Cheeseman, G. Scalmani, V. Barone, 
 G. A. Petersson, H. Nakatsuji, X. Li, M. Caricato, A. V. Marenich, 
 J. Bloino, B. G. Janesko, R. Gomperts, B. Mennucci, H. P. Hratchian, 
 J. V. Ortiz, A. F. Izmaylov, J. L. Sonnenberg, D. Williams-Young, 
 F. Ding, F. Lipparini, F. Egidi, J. Goings, B. Peng, A. Petrone, 
 T. Henderson, D. Ranasinghe, V. G. Zakrzewski, J. Gao, N. Rega, 
 G. Zheng, W. Liang, M. Hada, M. Ehara, K. Toyota, R. Fukuda, 
 J. Hasegawa, M. Ishida, T. Nakajima, Y. Honda, O. Kitao, H. Nakai, 
 T. Vreven, K. Throssell, J. A. Montgomery, Jr., J. E. Peralta, 
 F. Ogliaro, M. J. Bearpark, J. J. Heyd, E. N. Brothers, K. N. Kudin, 
 V. N. Staroverov, T. A. Keith, R. Kobayashi, J. Normand, 
 K. Raghavachari, A. P. Rendell, J. C. Burant, S. S. Iyengar, 
 J. Tomasi, M. Cossi, J. M. Millam, M. Klene, C. Adamo, R. Cammi, 
 J. W. Ochterski, R. L. Martin, K. Morokuma, O. Farkas, 
 J. B. Foresman, and D. J. Fox, Gaussian, Inc., Wallingford CT, 2016.
 
 ******************************************
 Gaussian 16:  EM64L-G16RevA.03 25-Dec-2016
                25-Aug-2022 
 ******************************************
 %NProcShared=24
 Will use up to   24 processors via shared memory.
 %Chk=ch3hgbr_gas_apfd_def2svp.chk
 ----------------------
 #Opt Freq apfd/Def2SVP
 ----------------------
 1/18=20,19=15,26=3,38=1/1,3;
 2/9=110,12=2,17=6,18=5,40=1/2;
 3/5=43,7=101,11=2,25=1,30=1,71=1,74=-44/1,2,3;
 4//1;
 5/5=2,38=5/2;
 6/7=2,8=2,9=2,10=2,28=1/1;
 7//1,2,3,16;
 1/18=20,19=15,26=3/3(2);
 2/9=110/2;
 99//99;
 2/9=110/2;
 3/5=43,7=101,11=2,25=1,30=1,71=1,74=-44/1,2,3;
 4/5=5,16=3,69=1/1;
 5/5=2,38=5/2;
 7//1,2,3,16;
 1/18=20,19=15,26=3/3(-5);
 2/9=110/2;
 6/7=2,8=2,9=2,10=2,19=2,28=1/1;
 99/9=1/99;
 ------------------------------------------
 Optimization MeHgbr-apfd-def2svp-gas phase
 ------------------------------------------
 Symbolic Z-matrix:
 Charge =  0 Multiplicity = 1
 C                    -4.87226   1.58796   0.00002 
 Hg                   -3.37421   3.08412   0.00005 
 H                    -4.63754   0.85031   0.7709 
 H                    -4.89474   1.108    -0.98111 
 H                    -5.83831   2.05276   0.2102 
 Br                   -1.69759   4.75882  -0.00006 
 

 GradGradGradGradGradGradGradGradGradGradGradGradGradGradGradGradGradGrad
 Berny optimization.
 Initialization pass.
                           ----------------------------
                           !    Initial Parameters    !
                           ! (Angstroms and Degrees)  !
 --------------------------                            --------------------------
 ! Name  Definition              Value          Derivative Info.                !
 --------------------------------------------------------------------------------
 ! R1    R(1,2)                  2.1172         estimate D2E/DX2                !
 ! R2    R(1,3)                  1.0925         estimate D2E/DX2                !
 ! R3    R(1,4)                  1.0925         estimate D2E/DX2                !
 ! R4    R(1,5)                  1.0925         estimate D2E/DX2                !
 ! R5    R(2,6)                  2.3697         estimate D2E/DX2                !
 ! A1    A(2,1,3)              108.9724         estimate D2E/DX2                !
 ! A2    A(2,1,4)              108.9678         estimate D2E/DX2                !
 ! A3    A(2,1,5)              108.9665         estimate D2E/DX2                !
 ! A4    A(3,1,4)              109.9682         estimate D2E/DX2                !
 ! A5    A(3,1,5)              109.9692         estimate D2E/DX2                !
 ! A6    A(4,1,5)              109.9691         estimate D2E/DX2                !
 ! A7    L(1,2,6,5,-1)         179.9977         estimate D2E/DX2                !
 ! A8    L(1,2,6,5,-2)         180.0102         estimate D2E/DX2                !
 ! D1    D(2,1,4,3)            119.3833         estimate D2E/DX2                !
 ! D2    D(2,1,5,3)           -119.383          estimate D2E/DX2                !
 ! D3    D(2,1,5,4)            119.3773         estimate D2E/DX2                !
 ! D4    D(3,1,5,4)           -121.2396         estimate D2E/DX2                !
 --------------------------------------------------------------------------------
 Trust Radius=3.00D-01 FncErr=1.00D-07 GrdErr=1.00D-06 EigMax=2.50D+02 EigMin=1.00D-04
 Number of steps in this run=     27 maximum allowed number of steps=    100.
 GradGradGradGradGradGradGradGradGradGradGradGradGradGradGradGradGradGrad

                          Input orientation:                          
 ---------------------------------------------------------------------
 Center     Atomic      Atomic             Coordinates (Angstroms)
 Number     Number       Type             X           Y           Z
 ---------------------------------------------------------------------
      1          6           0       -4.872260    1.587957    0.000017
      2         80           0       -3.374214    3.084122    0.000049
      3          1           0       -4.637535    0.850314    0.770897
      4          1           0       -4.894741    1.107998   -0.981111
      5          1           0       -5.838309    2.052761    0.210203
      6         35           0       -1.697590    4.758818   -0.000055
 ---------------------------------------------------------------------
                    Distance matrix (angstroms):
                    1          2          3          4          5
     1  C    0.000000
     2  Hg   2.117227   0.000000
     3  H    1.092460   2.679568   0.000000
     4  H    1.092464   2.679504   1.789438   0.000000
     5  H    1.092461   2.679484   1.789445   1.789449   0.000000
     6  Br   4.486969   2.369741   4.951166   4.951033   4.951011
                    6
     6  Br   0.000000
 This structure is nearly, but not quite of a higher symmetry.
 Consider Symm=Loose if the higher symmetry is desired.
 Stoichiometry    CH3BrHg
 Framework group  C1[X(CH3BrHg)]
 Deg. of freedom    12
 Full point group                 C1      NOp   1
 Largest Abelian subgroup         C1      NOp   1
 Largest concise Abelian subgroup C1      NOp   1
                         Standard orientation:                         
 ---------------------------------------------------------------------
 Center     Atomic      Atomic             Coordinates (Angstroms)
 Number     Number       Type             X           Y           Z
 ---------------------------------------------------------------------
      1          6           0        0.337272    0.850237   -2.459249
      2         80           0        0.065161    0.164179   -0.474827
      3          1           0        1.337245    1.280166   -2.552436
      4          1           0       -0.417111    1.609199   -2.679157
      5          1           0        0.228544    0.006530   -3.144675
      6         35           0       -0.239577   -0.603761    1.746226
 ---------------------------------------------------------------------
 Rotational constants (GHZ):         156.6014543           1.1570541           1.1570541
 Standard basis: def2SVP (5D, 7F)
 There are   102 symmetry adapted cartesian basis functions of A   symmetry.
 There are    93 symmetry adapted basis functions of A   symmetry.
    93 basis functions,   191 primitive gaussians,   102 cartesian basis functions
    32 alpha electrons       32 beta electrons
       nuclear repulsion energy       243.7515282257 Hartrees.
 NAtoms=    6 NActive=    6 NUniq=    6 SFac= 1.00D+00 NAtFMM=   60 NAOKFM=F Big=F
 Integral buffers will be    131072 words long.
 Raffenetti 2 integral format.
 Two-electron integral symmetry is turned on.
 R6APFD:  NTU= -4 IXU= 1 FactS= 1.050
 Nuclear repulsion after empirical dispersion term =      243.7267173894 Hartrees.
 One-electron integrals computed using PRISM.
 PrsmSu:  requested number of processors reduced to:  13 ShMem   1 Linda.
   1 Symmetry operations used in ECPInt.
 ECPInt:  NShTT=     780 NPrTT=    3001 LenC2=     759 LenP2D=    2438.
 LDataN:  DoStor=T MaxTD1= 8 Len=  415
 NBasis=    93 RedAO= T EigKep=  8.07D-03  NBF=    93
 NBsUse=    93 1.00D-06 EigRej= -1.00D+00 NBFU=    93
 Defaulting to unpruned grid for atomic number  80.
 ExpMin= 5.64D-02 ExpMax= 1.13D+05 ExpMxC= 1.70D+04 IAcc=3 IRadAn=         5 AccDes= 0.00D+00
 Harris functional with IExCor= 3731 and IRadAn=       5 diagonalized for initial guess.
 HarFok:  IExCor= 3731 AccDes= 0.00D+00 IRadAn=         5 IDoV= 1 UseB2=F ITyADJ=14
 ICtDFT=  3500011 ScaDFX=  1.000000  1.000000  1.000000  1.000000
 Defaulting to unpruned grid for atomic number  80.
 FoFCou: FMM=F IPFlag=           0 FMFlag=      100000 FMFlg1=           0
         NFxFlg=           0 DoJE=T BraDBF=F KetDBF=T FulRan=T
         wScrn=  0.000000 ICntrl=       500 IOpCl=  0 I1Cent=   200000004 NGrid=           0
         NMat0=    1 NMatS0=      1 NMatT0=    0 NMatD0=    1 NMtDS0=    0 NMtDT0=    0
 Petite list used in FoFCou.
 Keep R1 ints in memory in canonical form, NReq=31764250.
 Requested convergence on RMS density matrix=1.00D-08 within 128 cycles.
 Requested convergence on MAX density matrix=1.00D-06.
 Requested convergence on             energy=1.00D-06.
 No special actions if energy rises.
 Integral accuracy reduced to 1.0D-05 until final iterations.
 Defaulting to unpruned grid for atomic number  80.
 Defaulting to unpruned grid for atomic number  80.
 Defaulting to unpruned grid for atomic number  80.
 Defaulting to unpruned grid for atomic number  80.
 Defaulting to unpruned grid for atomic number  80.
 Defaulting to unpruned grid for atomic number  80.
 Defaulting to unpruned grid for atomic number  80.
 Defaulting to unpruned grid for atomic number  80.
 Defaulting to unpruned grid for atomic number  80.
 Defaulting to unpruned grid for atomic number  80.
 Defaulting to unpruned grid for atomic number  80.
 Defaulting to unpruned grid for atomic number  80.
 Defaulting to unpruned grid for atomic number  80.
 Defaulting to unpruned grid for atomic number  80.
 Defaulting to unpruned grid for atomic number  80.
 Defaulting to unpruned grid for atomic number  80.
 Defaulting to unpruned grid for atomic number  80.
 Defaulting to unpruned grid for atomic number  80.
 Defaulting to unpruned grid for atomic number  80.
 Defaulting to unpruned grid for atomic number  80.
 Defaulting to unpruned grid for atomic number  80.
 Defaulting to unpruned grid for atomic number  80.
 Defaulting to unpruned grid for atomic number  80.
 Defaulting to unpruned grid for atomic number  80.
 EnCoef did   100 forward-backward iterations
 Initial convergence to 1.0D-05 achieved.  Increase integral accuracy.
 SCF Done:  E(RAPFD) =  -2767.10123997     A.U. after   14 cycles
            NFock= 14  Conv=0.65D-08     -V/T= 2.0397

 **********************************************************************

            Population analysis using the SCF density.

 **********************************************************************

 Orbital symmetries:
       Occupied  (A) (A) (A) (A) (A) (A) (A) (A) (A) (A) (A) (A)
                 (A) (A) (A) (A) (A) (A) (A) (A) (A) (A) (A) (A)
                 (A) (A) (A) (A) (A) (A) (A) (A)
       Virtual   (A) (A) (A) (A) (A) (A) (A) (A) (A) (A) (A) (A)
                 (A) (A) (A) (A) (A) (A) (A) (A) (A) (A) (A) (A)
                 (A) (A) (A) (A) (A) (A) (A) (A) (A) (A) (A) (A)
                 (A) (A) (A) (A) (A) (A) (A) (A) (A) (A) (A) (A)
                 (A) (A) (A) (A) (A) (A) (A) (A) (A) (A) (A) (A)
                 (A)
 The electronic state is 1-A.
 Alpha  occ. eigenvalues -- -482.98989 -62.53548 -56.34061 -56.33852 -56.33852
 Alpha  occ. eigenvalues --  -10.22997  -8.71571  -6.53417  -6.52602  -6.52602
 Alpha  occ. eigenvalues --   -4.53162  -2.66671  -2.65834  -2.65834  -2.63071
 Alpha  occ. eigenvalues --   -2.62843  -2.62843  -2.62199  -2.62199  -0.76307
 Alpha  occ. eigenvalues --   -0.70840  -0.51736  -0.50915  -0.50915  -0.48748
 Alpha  occ. eigenvalues --   -0.48747  -0.41560  -0.41560  -0.37165  -0.30486
 Alpha  occ. eigenvalues --   -0.28353  -0.28353
 Alpha virt. eigenvalues --   -0.02030  -0.00328  -0.00327   0.07512   0.13533
 Alpha virt. eigenvalues --    0.13533   0.14112   0.20710   0.39623   0.39624
 Alpha virt. eigenvalues --    0.43802   0.43802   0.44258   0.46413   0.49515
 Alpha virt. eigenvalues --    0.49695   0.49696   0.57672   0.57672   0.65345
 Alpha virt. eigenvalues --    0.65346   0.65834   0.67516   0.67516   0.77085
 Alpha virt. eigenvalues --    0.77085   0.78146   0.82003   0.82003   0.83224
 Alpha virt. eigenvalues --    0.98467   1.25500   1.25501   1.26187   1.51239
 Alpha virt. eigenvalues --    1.53996   1.53996   1.54347   1.54396   1.54424
 Alpha virt. eigenvalues --    1.54759   1.54759   1.76263   1.76264   1.93670
 Alpha virt. eigenvalues --    1.97510   1.97510   2.19473   2.35649   2.42264
 Alpha virt. eigenvalues --    2.42265   2.72841   2.90606   2.90606   3.45987
 Alpha virt. eigenvalues --    3.45987   3.53233   3.53233   3.78608  33.36045
 Alpha virt. eigenvalues --  121.56608
          Condensed to atoms (all electrons):
               1          2          3          4          5          6
     1  C    5.007260   0.267726   0.377309   0.377305   0.377304  -0.013698
     2  Hg   0.267726  19.123938  -0.025366  -0.025370  -0.025371   0.232993
     3  H    0.377309  -0.025366   0.583252  -0.013775  -0.013775   0.000266
     4  H    0.377305  -0.025370  -0.013775   0.583258  -0.013774   0.000267
     5  H    0.377304  -0.025371  -0.013775  -0.013774   0.583258   0.000267
     6  Br  -0.013698   0.232993   0.000266   0.000267   0.000267  35.114423
 Mulliken charges:
               1
     1  C   -0.393206
     2  Hg   0.451451
     3  H    0.092089
     4  H    0.092091
     5  H    0.092092
     6  Br  -0.334517
 Sum of Mulliken charges =  -0.00000
 Mulliken charges with hydrogens summed into heavy atoms:
               1
     1  C   -0.116934
     2  Hg   0.451451
     6  Br  -0.334517
 Electronic spatial extent (au):  <R**2>=            817.0122
 Charge=             -0.0000 electrons
 Dipole moment (field-independent basis, Debye):
    X=              0.3835    Y=              0.9665    Z=             -2.7954  Tot=              2.9825
 Quadrupole moment (field-independent basis, Debye-Ang):
   XX=            -48.6111   YY=            -48.9092   ZZ=            -51.5154
   XY=             -0.1404   XZ=              0.4061   YZ=              1.0234
 Traceless Quadrupole moment (field-independent basis, Debye-Ang):
   XX=              1.0675   YY=              0.7694   ZZ=             -1.8369
   XY=             -0.1404   XZ=              0.4061   YZ=              1.0234
 Octapole moment (field-independent basis, Debye-Ang**2):
  XXX=              2.1289  YYY=              4.0348  ZZZ=             -9.6179  XYY=              0.2478
  XXY=              2.0762  XXZ=             -4.1973  XZZ=              0.1034  YZZ=              0.1320
  YYZ=             -4.2372  XYZ=              0.1540
 Hexadecapole moment (field-independent basis, Debye-Ang**3):
 XXXX=            -72.1854 YYYY=           -140.3328 ZZZZ=           -719.4232 XXXY=            -14.5174
 XXXZ=             44.1746 YYYX=            -16.6259 YYYZ=            113.7749 ZZZX=             45.5302
 ZZZY=            115.8796 XXYY=            -34.3127 XXZZ=           -132.2971 YYZZ=           -141.6039
 XXYZ=             36.2197 YYXZ=             15.7803 ZZXY=             -5.3270
 N-N= 2.437267173894D+02 E-N=-7.052859670130D+03  KE= 2.661386447738D+03
 R6APFD:  NTU= -4 IXU= 1 FactS= 1.050
 PrsmSu:  requested number of processors reduced to:  13 ShMem   1 Linda.
   1 Symmetry operations used in ECPInt.
 ECPInt:  NShTT=     780 NPrTT=    3001 LenC2=     759 LenP2D=    2438.
 LDataN:  DoStor=T MaxTD1= 9 Len=  602
 Calling FoFJK, ICntrl=      2127 FMM=F ISym2X=0 I1Cent= 0 IOpClX= 0 NMat=1 NMatS=1 NMatT=0.
 Defaulting to unpruned grid for atomic number  80.
 Defaulting to unpruned grid for atomic number  80.
 Defaulting to unpruned grid for atomic number  80.
 Defaulting to unpruned grid for atomic number  80.
 Defaulting to unpruned grid for atomic number  80.
 Defaulting to unpruned grid for atomic number  80.
 Defaulting to unpruned grid for atomic number  80.
 Defaulting to unpruned grid for atomic number  80.
 Defaulting to unpruned grid for atomic number  80.
 Defaulting to unpruned grid for atomic number  80.
 Defaulting to unpruned grid for atomic number  80.
 Defaulting to unpruned grid for atomic number  80.
 Defaulting to unpruned grid for atomic number  80.
 Defaulting to unpruned grid for atomic number  80.
 Defaulting to unpruned grid for atomic number  80.
 Defaulting to unpruned grid for atomic number  80.
 Defaulting to unpruned grid for atomic number  80.
 Defaulting to unpruned grid for atomic number  80.
 Defaulting to unpruned grid for atomic number  80.
 Defaulting to unpruned grid for atomic number  80.
 Defaulting to unpruned grid for atomic number  80.
 Defaulting to unpruned grid for atomic number  80.
 Defaulting to unpruned grid for atomic number  80.
 Defaulting to unpruned grid for atomic number  80.
 ***** Axes restored to original set *****
 -------------------------------------------------------------------
 Center     Atomic                   Forces (Hartrees/Bohr)
 Number     Number              X              Y              Z
 -------------------------------------------------------------------
      1        6           0.008829026    0.008820350   -0.000002447
      2       80          -0.015667138   -0.015653409   -0.000001265
      3        1           0.001081822   -0.002110550    0.002532115
      4        1           0.000235737   -0.001265150   -0.003219107
      5        1          -0.002862984    0.001834715    0.000690341
      6       35           0.008383537    0.008374045    0.000000364
 -------------------------------------------------------------------
 Cartesian Forces:  Max     0.015667138 RMS     0.006760760

 GradGradGradGradGradGradGradGradGradGradGradGradGradGradGradGradGradGrad
 Berny optimization.
 FormGI is forming the generalized inverse of G from B-inverse, IUseBI=4.
 Internal  Forces:  Max     0.011849402 RMS     0.004076289
 Search for a local minimum.
 Step number   1 out of a maximum of   27
 All quantities printed in internal units (Hartrees-Bohrs-Radians)
 Mixed Optimization -- RFO/linear search
 Second derivative matrix not updated -- first step.
 The second derivative matrix:
                          R1        R2        R3        R4        R5
           R1           0.14592
           R2           0.00000   0.34530
           R3           0.00000   0.00000   0.34529
           R4           0.00000   0.00000   0.00000   0.34530
           R5           0.00000   0.00000   0.00000   0.00000   0.23115
           A1           0.00000   0.00000   0.00000   0.00000   0.00000
           A2           0.00000   0.00000   0.00000   0.00000   0.00000
           A3           0.00000   0.00000   0.00000   0.00000   0.00000
           A4           0.00000   0.00000   0.00000   0.00000   0.00000
           A5           0.00000   0.00000   0.00000   0.00000   0.00000
           A6           0.00000   0.00000   0.00000   0.00000   0.00000
           A7           0.00000   0.00000   0.00000   0.00000   0.00000
           A8           0.00000   0.00000   0.00000   0.00000   0.00000
           D1           0.00000   0.00000   0.00000   0.00000   0.00000
           D2           0.00000   0.00000   0.00000   0.00000   0.00000
           D3           0.00000   0.00000   0.00000   0.00000   0.00000
           D4           0.00000   0.00000   0.00000   0.00000   0.00000
                          A1        A2        A3        A4        A5
           A1           0.16000
           A2           0.00000   0.16000
           A3           0.00000   0.00000   0.16000
           A4           0.00000   0.00000   0.00000   0.16000
           A5           0.00000   0.00000   0.00000   0.00000   0.16000
           A6           0.00000   0.00000   0.00000   0.00000   0.00000
           A7           0.00000   0.00000   0.00000   0.00000   0.00000
           A8           0.00000   0.00000   0.00000   0.00000   0.00000
           D1           0.00000   0.00000   0.00000   0.00000   0.00000
           D2           0.00000   0.00000   0.00000   0.00000   0.00000
           D3           0.00000   0.00000   0.00000   0.00000   0.00000
           D4           0.00000   0.00000   0.00000   0.00000   0.00000
                          A6        A7        A8        D1        D2
           A6           0.16000
           A7           0.00000   0.00230
           A8           0.00000   0.00000   0.00230
           D1           0.00000   0.00000   0.00000   0.00230
           D2           0.00000   0.00000   0.00000   0.00000   0.00230
           D3           0.00000   0.00000   0.00000   0.00000   0.00000
           D4           0.00000   0.00000   0.00000   0.00000   0.00000
                          D3        D4
           D3           0.00230
           D4           0.00000   0.00230
 ITU=  0
     Eigenvalues ---    0.00230   0.00230   0.05051   0.05656   0.08734
     Eigenvalues ---    0.14592   0.16000   0.16000   0.23115   0.34529
     Eigenvalues ---    0.34530   0.34530
 RFO step:  Lambda=-1.43258835D-03 EMin= 2.30000000D-03
 Linear search not attempted -- first point.
 Iteration  1 RMS(Cart)=  0.01622496 RMS(Int)=  0.00001187
 Iteration  2 RMS(Cart)=  0.00001075 RMS(Int)=  0.00000486
 Iteration  3 RMS(Cart)=  0.00000000 RMS(Int)=  0.00000486
 Variable       Old X    -DE/DX   Delta X   Delta X   Delta X     New X
                                 (Linear)    (Quad)   (Total)
    R1        4.00098  -0.01030   0.00000  -0.06988  -0.06988   3.93110
    R2        2.06445   0.00344   0.00000   0.00993   0.00993   2.07438
    R3        2.06446   0.00344   0.00000   0.00993   0.00993   2.07439
    R4        2.06445   0.00344   0.00000   0.00994   0.00994   2.07439
    R5        4.47816   0.01185   0.00000   0.05095   0.05095   4.52911
    A1        1.90193  -0.00009   0.00000  -0.00257  -0.00257   1.89936
    A2        1.90185  -0.00015   0.00000  -0.00258  -0.00258   1.89926
    A3        1.90182  -0.00028   0.00000  -0.00262  -0.00262   1.89921
    A4        1.91931   0.00003   0.00000   0.00249   0.00247   1.92178
    A5        1.91932   0.00023   0.00000   0.00257   0.00256   1.92188
    A6        1.91932   0.00025   0.00000   0.00257   0.00256   1.92189
    A7        3.14155  -0.00000   0.00000  -0.00130  -0.00130   3.14025
    A8        3.14177  -0.00000   0.00000  -0.00043  -0.00043   3.14134
    D1        2.08363  -0.00018   0.00000  -0.00323  -0.00323   2.08040
    D2       -2.08363   0.00015   0.00000   0.00320   0.00320  -2.08042
    D3        2.08353  -0.00020   0.00000  -0.00321  -0.00322   2.08031
    D4       -2.11603  -0.00035   0.00000  -0.00641  -0.00642  -2.12245
         Item               Value     Threshold  Converged?
 Maximum Force            0.011849     0.000450     NO 
 RMS     Force            0.004076     0.000300     NO 
 Maximum Displacement     0.041003     0.001800     NO 
 RMS     Displacement     0.016229     0.001200     NO 
 Predicted change in Energy=-7.219581D-04
 GradGradGradGradGradGradGradGradGradGradGradGradGradGradGradGradGradGrad

                          Input orientation:                          
 ---------------------------------------------------------------------
 Center     Atomic      Atomic             Coordinates (Angstroms)
 Number     Number       Type             X           Y           Z
 ---------------------------------------------------------------------
      1          6           0       -4.867037    1.593120    0.000005
      2         80           0       -3.394431    3.062424   -0.000322
      3          1           0       -4.629122    0.853344    0.775318
      4          1           0       -4.887865    1.112416   -0.986643
      5          1           0       -5.836199    2.063230    0.211452
      6         35           0       -1.699994    4.757435    0.000192
 ---------------------------------------------------------------------
                    Distance matrix (angstroms):
                    1          2          3          4          5
     1  C    0.000000
     2  Hg   2.080246   0.000000
     3  H    1.097717   2.646907   0.000000
     4  H    1.097718   2.646830   1.799603   0.000000
     5  H    1.097719   2.646785   1.799667   1.799671   0.000000
     6  Br   4.476946   2.396701   4.941916   4.941915   4.940805
                    6
     6  Br   0.000000
 Stoichiometry    CH3BrHg
 Framework group  C1[X(CH3BrHg)]
 Deg. of freedom    12
 Full point group                 C1      NOp   1
 Largest Abelian subgroup         C1      NOp   1
 Largest concise Abelian subgroup C1      NOp   1
                         Standard orientation:                         
 ---------------------------------------------------------------------
 Center     Atomic      Atomic             Coordinates (Angstroms)
 Number     Number       Type             X           Y           Z
 ---------------------------------------------------------------------
      1          6           0        2.597180   -0.001712    0.000065
      2         80           0        0.516935    0.000387   -0.000014
      3          1           0        2.951849    0.483007    0.918890
      4          1           0        2.951888    0.551160   -0.879423
      5          1           0        2.950192   -1.040375   -0.039288
      6         35           0       -1.879766   -0.000414    0.000015
 ---------------------------------------------------------------------
 Rotational constants (GHZ):         154.8267167           1.1441899           1.1441893
 Standard basis: def2SVP (5D, 7F)
 There are   102 symmetry adapted cartesian basis functions of A   symmetry.
 There are    93 symmetry adapted basis functions of A   symmetry.
    93 basis functions,   191 primitive gaussians,   102 cartesian basis functions
    32 alpha electrons       32 beta electrons
       nuclear repulsion energy       242.7029958309 Hartrees.
 NAtoms=    6 NActive=    6 NUniq=    6 SFac= 1.00D+00 NAtFMM=   60 NAOKFM=F Big=F
 Integral buffers will be    131072 words long.
 Raffenetti 2 integral format.
 Two-electron integral symmetry is turned on.
 R6APFD:  NTU= -4 IXU= 1 FactS= 1.050
 Nuclear repulsion after empirical dispersion term =      242.6786884092 Hartrees.
 One-electron integrals computed using PRISM.
 PrsmSu:  requested number of processors reduced to:  13 ShMem   1 Linda.
   1 Symmetry operations used in ECPInt.
 ECPInt:  NShTT=     780 NPrTT=    3001 LenC2=     759 LenP2D=    2437.
 LDataN:  DoStor=T MaxTD1= 8 Len=  415
 NBasis=    93 RedAO= T EigKep=  8.05D-03  NBF=    93
 NBsUse=    93 1.00D-06 EigRej= -1.00D+00 NBFU=    93
 Defaulting to unpruned grid for atomic number  80.
 Initial guess from the checkpoint file:  "ch3hgbr_gas_apfd_def2svp.chk"
 B after Tr=    -0.000000   -0.000000   -0.000000
         Rot=    0.732571    0.166217    0.656111    0.072320 Ang=  85.80 deg.
 ExpMin= 5.64D-02 ExpMax= 1.13D+05 ExpMxC= 1.70D+04 IAcc=2 IRadAn=         4 AccDes= 0.00D+00
 Harris functional with IExCor= 3731 and IRadAn=       4 diagonalized for initial guess.
 HarFok:  IExCor= 3731 AccDes= 0.00D+00 IRadAn=         4 IDoV= 1 UseB2=F ITyADJ=14
 ICtDFT=  3500011 ScaDFX=  1.000000  1.000000  1.000000  1.000000
 Defaulting to unpruned grid for atomic number  80.
 FoFCou: FMM=F IPFlag=           0 FMFlag=      100000 FMFlg1=           0
         NFxFlg=           0 DoJE=T BraDBF=F KetDBF=T FulRan=T
         wScrn=  0.000000 ICntrl=       500 IOpCl=  0 I1Cent=   200000004 NGrid=           0
         NMat0=    1 NMatS0=      1 NMatT0=    0 NMatD0=    1 NMtDS0=    0 NMtDT0=    0
 Petite list used in FoFCou.
 Keep R1 ints in memory in canonical form, NReq=31764250.
 Requested convergence on RMS density matrix=1.00D-08 within 128 cycles.
 Requested convergence on MAX density matrix=1.00D-06.
 Requested convergence on             energy=1.00D-06.
 No special actions if energy rises.
 Integral accuracy reduced to 1.0D-05 until final iterations.
 Defaulting to unpruned grid for atomic number  80.
 Defaulting to unpruned grid for atomic number  80.
 Defaulting to unpruned grid for atomic number  80.
 Defaulting to unpruned grid for atomic number  80.
 Defaulting to unpruned grid for atomic number  80.
 Defaulting to unpruned grid for atomic number  80.
 Defaulting to unpruned grid for atomic number  80.
 Defaulting to unpruned grid for atomic number  80.
 Defaulting to unpruned grid for atomic number  80.
 Defaulting to unpruned grid for atomic number  80.
 Defaulting to unpruned grid for atomic number  80.
 Defaulting to unpruned grid for atomic number  80.
 Defaulting to unpruned grid for atomic number  80.
 Defaulting to unpruned grid for atomic number  80.
 Defaulting to unpruned grid for atomic number  80.
 Defaulting to unpruned grid for atomic number  80.
 Defaulting to unpruned grid for atomic number  80.
 Defaulting to unpruned grid for atomic number  80.
 Defaulting to unpruned grid for atomic number  80.
 Defaulting to unpruned grid for atomic number  80.
 Defaulting to unpruned grid for atomic number  80.
 Defaulting to unpruned grid for atomic number  80.
 Defaulting to unpruned grid for atomic number  80.
 Defaulting to unpruned grid for atomic number  80.
 Initial convergence to 1.0D-05 achieved.  Increase integral accuracy.
 SCF Done:  E(RAPFD) =  -2767.10197675     A.U. after   12 cycles
            NFock= 12  Conv=0.32D-08     -V/T= 2.0397
 R6APFD:  NTU= -4 IXU= 1 FactS= 1.050
 PrsmSu:  requested number of processors reduced to:  13 ShMem   1 Linda.
   1 Symmetry operations used in ECPInt.
 ECPInt:  NShTT=     780 NPrTT=    3001 LenC2=     759 LenP2D=    2437.
 LDataN:  DoStor=T MaxTD1= 9 Len=  602
 Calling FoFJK, ICntrl=      2127 FMM=F ISym2X=0 I1Cent= 0 IOpClX= 0 NMat=1 NMatS=1 NMatT=0.
 Defaulting to unpruned grid for atomic number  80.
 Defaulting to unpruned grid for atomic number  80.
 Defaulting to unpruned grid for atomic number  80.
 Defaulting to unpruned grid for atomic number  80.
 Defaulting to unpruned grid for atomic number  80.
 Defaulting to unpruned grid for atomic number  80.
 Defaulting to unpruned grid for atomic number  80.
 Defaulting to unpruned grid for atomic number  80.
 Defaulting to unpruned grid for atomic number  80.
 Defaulting to unpruned grid for atomic number  80.
 Defaulting to unpruned grid for atomic number  80.
 Defaulting to unpruned grid for atomic number  80.
 Defaulting to unpruned grid for atomic number  80.
 Defaulting to unpruned grid for atomic number  80.
 Defaulting to unpruned grid for atomic number  80.
 Defaulting to unpruned grid for atomic number  80.
 Defaulting to unpruned grid for atomic number  80.
 Defaulting to unpruned grid for atomic number  80.
 Defaulting to unpruned grid for atomic number  80.
 Defaulting to unpruned grid for atomic number  80.
 Defaulting to unpruned grid for atomic number  80.
 Defaulting to unpruned grid for atomic number  80.
 Defaulting to unpruned grid for atomic number  80.
 Defaulting to unpruned grid for atomic number  80.
 ***** Axes restored to original set *****
 -------------------------------------------------------------------
 Center     Atomic                   Forces (Hartrees/Bohr)
 Number     Number              X              Y              Z
 -------------------------------------------------------------------
      1        6          -0.000393944   -0.000461335   -0.000016918
      2       80          -0.001105820   -0.001015561    0.000021615
      3        1          -0.000478861   -0.000207737   -0.000207931
      4        1          -0.000413898   -0.000281245    0.000268380
      5        1          -0.000144170   -0.000531526   -0.000057342
      6       35           0.002536694    0.002497403   -0.000007804
 -------------------------------------------------------------------
 Cartesian Forces:  Max     0.002536694 RMS     0.000949842

 GradGradGradGradGradGradGradGradGradGradGradGradGradGradGradGradGradGrad
 Berny optimization.
 Using GEDIIS/GDIIS optimizer.
 FormGI is forming the generalized inverse of G from B-inverse, IUseBI=4.
 Internal  Forces:  Max     0.003559638 RMS     0.001022041
 Search for a local minimum.
 Step number   2 out of a maximum of   27
 All quantities printed in internal units (Hartrees-Bohrs-Radians)
 Mixed Optimization -- RFO/linear search
 Update second derivatives using D2CorX and points    1    2
 DE= -7.37D-04 DEPred=-7.22D-04 R= 1.02D+00
 TightC=F SS=  1.41D+00  RLast= 8.88D-02 DXNew= 5.0454D-01 2.6646D-01
 Trust test= 1.02D+00 RLast= 8.88D-02 DXMaxT set to 3.00D-01
 The second derivative matrix:
                          R1        R2        R3        R4        R5
           R1           0.18124
           R2          -0.00660   0.34600
           R3          -0.00659   0.00070   0.34599
           R4          -0.00661   0.00070   0.00070   0.34600
           R5           0.01172  -0.00748  -0.00748  -0.00748   0.18240
           A1          -0.00103   0.00044   0.00044   0.00044   0.00212
           A2           0.00010   0.00011   0.00011   0.00011   0.00137
           A3           0.00270  -0.00063  -0.00063  -0.00063  -0.00035
           A4           0.00218  -0.00077  -0.00077  -0.00077  -0.00284
           A5          -0.00165   0.00033   0.00033   0.00033  -0.00032
           A6          -0.00226   0.00051   0.00051   0.00051   0.00009
           A7           0.00118  -0.00034  -0.00034  -0.00034  -0.00078
           A8           0.00005  -0.00001  -0.00001  -0.00001  -0.00003
           D1           0.00377  -0.00108  -0.00108  -0.00108  -0.00250
           D2          -0.00303   0.00087   0.00087   0.00087   0.00201
           D3           0.00406  -0.00116  -0.00116  -0.00117  -0.00270
           D4           0.00709  -0.00203  -0.00203  -0.00204  -0.00471
                          A1        A2        A3        A4        A5
           A1           0.15992
           A2          -0.00007   0.15997
           A3          -0.00002   0.00004   0.16018
           A4           0.00010   0.00010   0.00008   0.15989
           A5           0.00004  -0.00001  -0.00012  -0.00009   0.16008
           A6           0.00003  -0.00003  -0.00015  -0.00008   0.00010
           A7           0.00002   0.00003   0.00006  -0.00001  -0.00005
           A8           0.00000   0.00000   0.00000  -0.00000  -0.00000
           D1           0.00007   0.00011   0.00020  -0.00002  -0.00016
           D2          -0.00005  -0.00009  -0.00016   0.00002   0.00013
           D3           0.00007   0.00011   0.00021  -0.00002  -0.00017
           D4           0.00012   0.00020   0.00037  -0.00004  -0.00030
                          A6        A7        A8        D1        D2
           A6           0.16013
           A7          -0.00006   0.00231
           A8          -0.00000   0.00000   0.00230
           D1          -0.00018   0.00004   0.00000   0.00243
           D2           0.00015  -0.00003  -0.00000  -0.00011   0.00239
           D3          -0.00020   0.00005   0.00000   0.00014  -0.00012
           D4          -0.00034   0.00008   0.00000   0.00025  -0.00020
                          D3        D4
           D3           0.00246
           D4           0.00027   0.00278
 ITU=  1  0
 Use linear search instead of GDIIS.
     Eigenvalues ---    0.00230   0.00230   0.05055   0.05666   0.08762
     Eigenvalues ---    0.15852   0.16000   0.17238   0.19177   0.34530
     Eigenvalues ---    0.34530   0.34939
 RFO step:  Lambda=-1.06674318D-04 EMin= 2.29998369D-03
 Quartic linear search produced a step of  0.01723.
 Iteration  1 RMS(Cart)=  0.03048907 RMS(Int)=  0.00064060
 Iteration  2 RMS(Cart)=  0.00088669 RMS(Int)=  0.00000862
 Iteration  3 RMS(Cart)=  0.00000038 RMS(Int)=  0.00000861
 Variable       Old X    -DE/DX   Delta X   Delta X   Delta X     New X
                                 (Linear)    (Quad)   (Total)
    R1        3.93110   0.00206  -0.00120   0.01037   0.00916   3.94026
    R2        2.07438  -0.00011   0.00017   0.00025   0.00042   2.07480
    R3        2.07439  -0.00011   0.00017   0.00025   0.00042   2.07480
    R4        2.07439  -0.00011   0.00017   0.00024   0.00041   2.07480
    R5        4.52911   0.00356   0.00088   0.01857   0.01945   4.54856
    A1        1.89936   0.00012  -0.00004   0.00345   0.00341   1.90277
    A2        1.89926   0.00020  -0.00004   0.00357   0.00353   1.90279
    A3        1.89921   0.00037  -0.00005   0.00339   0.00334   1.90255
    A4        1.92178  -0.00004   0.00004  -0.00330  -0.00327   1.91851
    A5        1.92188  -0.00030   0.00004  -0.00343  -0.00340   1.91849
    A6        1.92189  -0.00034   0.00004  -0.00343  -0.00340   1.91849
    A7        3.14025   0.00013  -0.00002   0.05589   0.05587   3.19612
    A8        3.14134   0.00000  -0.00001   0.00204   0.00203   3.14337
    D1        2.08040   0.00025  -0.00006   0.00443   0.00436   2.08476
    D2       -2.08042  -0.00020   0.00006  -0.00424  -0.00418  -2.08460
    D3        2.08031   0.00027  -0.00006   0.00438   0.00432   2.08463
    D4       -2.12245   0.00047  -0.00011   0.00862   0.00849  -2.11396
         Item               Value     Threshold  Converged?
 Maximum Force            0.003560     0.000450     NO 
 RMS     Force            0.001022     0.000300     NO 
 Maximum Displacement     0.067584     0.001800     NO 
 RMS     Displacement     0.030851     0.001200     NO 
 Predicted change in Energy=-5.372924D-05
 GradGradGradGradGradGradGradGradGradGradGradGradGradGradGradGradGradGrad

                          Input orientation:                          
 ---------------------------------------------------------------------
 Center     Atomic      Atomic             Coordinates (Angstroms)
 Number     Number       Type             X           Y           Z
 ---------------------------------------------------------------------
      1          6           0       -4.869145    1.593563    0.000383
      2         80           0       -3.425665    3.098188    0.010149
      3          1           0       -4.620773    0.854388    0.773299
      4          1           0       -4.878990    1.113506   -0.986996
      5          1           0       -5.850818    2.038423    0.209869
      6         35           0       -1.669258    4.743902   -0.006705
 ---------------------------------------------------------------------
                    Distance matrix (angstroms):
                    1          2          3          4          5
     1  C    0.000000
     2  Hg   2.085096   0.000000
     3  H    1.097937   2.654302   0.000000
     4  H    1.097938   2.654319   1.797903   0.000000
     5  H    1.097938   2.654121   1.797888   1.797889   0.000000
     6  Br   4.490430   2.406995   4.944509   4.943999   4.985175
                    6
     6  Br   0.000000
 Stoichiometry    CH3BrHg
 Framework group  C1[X(CH3BrHg)]
 Deg. of freedom    12
 Full point group                 C1      NOp   1
 Largest Abelian subgroup         C1      NOp   1
 Largest concise Abelian subgroup C1      NOp   1
                         Standard orientation:                         
 ---------------------------------------------------------------------
 Center     Atomic      Atomic             Coordinates (Angstroms)
 Number     Number       Type             X           Y           Z
 ---------------------------------------------------------------------
      1          6           0        2.602819    0.069638    0.000001
      2         80           0        0.519472   -0.015763   -0.000000
      3          1           0        2.939506    0.592774    0.904676
      4          1           0        2.938709    0.612766   -0.893115
      5          1           0        3.002634   -0.952850   -0.011546
      6         35           0       -1.887301    0.016873    0.000000
 ---------------------------------------------------------------------
 Rotational constants (GHZ):         148.5784790           1.1357368           1.1353702
 Standard basis: def2SVP (5D, 7F)
 There are   102 symmetry adapted cartesian basis functions of A   symmetry.
 There are    93 symmetry adapted basis functions of A   symmetry.
    93 basis functions,   191 primitive gaussians,   102 cartesian basis functions
    32 alpha electrons       32 beta electrons
       nuclear repulsion energy       241.8252133557 Hartrees.
 NAtoms=    6 NActive=    6 NUniq=    6 SFac= 1.00D+00 NAtFMM=   60 NAOKFM=F Big=F
 Integral buffers will be    131072 words long.
 Raffenetti 2 integral format.
 Two-electron integral symmetry is turned on.
 R6APFD:  NTU= -4 IXU= 1 FactS= 1.050
 Nuclear repulsion after empirical dispersion term =      241.8011330005 Hartrees.
 One-electron integrals computed using PRISM.
 PrsmSu:  requested number of processors reduced to:  13 ShMem   1 Linda.
   1 Symmetry operations used in ECPInt.
 ECPInt:  NShTT=     780 NPrTT=    3001 LenC2=     759 LenP2D=    2437.
 LDataN:  DoStor=T MaxTD1= 8 Len=  415
 NBasis=    93 RedAO= T EigKep=  8.13D-03  NBF=    93
 NBsUse=    93 1.00D-06 EigRej= -1.00D+00 NBFU=    93
 Defaulting to unpruned grid for atomic number  80.
 Initial guess from the checkpoint file:  "ch3hgbr_gas_apfd_def2svp.chk"
 B after Tr=    -0.000000    0.000000    0.000000
         Rot=    0.999910    0.013394    0.000004   -0.000323 Ang=   1.54 deg.
 ExpMin= 5.64D-02 ExpMax= 1.13D+05 ExpMxC= 1.70D+04 IAcc=2 IRadAn=         4 AccDes= 0.00D+00
 Harris functional with IExCor= 3731 and IRadAn=       4 diagonalized for initial guess.
 HarFok:  IExCor= 3731 AccDes= 0.00D+00 IRadAn=         4 IDoV= 1 UseB2=F ITyADJ=14
 ICtDFT=  3500011 ScaDFX=  1.000000  1.000000  1.000000  1.000000
 Defaulting to unpruned grid for atomic number  80.
 FoFCou: FMM=F IPFlag=           0 FMFlag=      100000 FMFlg1=           0
         NFxFlg=           0 DoJE=T BraDBF=F KetDBF=T FulRan=T
         wScrn=  0.000000 ICntrl=       500 IOpCl=  0 I1Cent=   200000004 NGrid=           0
         NMat0=    1 NMatS0=      1 NMatT0=    0 NMatD0=    1 NMtDS0=    0 NMtDT0=    0
 Petite list used in FoFCou.
 Keep R1 ints in memory in canonical form, NReq=31764250.
 Requested convergence on RMS density matrix=1.00D-08 within 128 cycles.
 Requested convergence on MAX density matrix=1.00D-06.
 Requested convergence on             energy=1.00D-06.
 No special actions if energy rises.
 Integral accuracy reduced to 1.0D-05 until final iterations.
 Defaulting to unpruned grid for atomic number  80.
 Defaulting to unpruned grid for atomic number  80.
 Defaulting to unpruned grid for atomic number  80.
 Defaulting to unpruned grid for atomic number  80.
 Defaulting to unpruned grid for atomic number  80.
 Defaulting to unpruned grid for atomic number  80.
 Defaulting to unpruned grid for atomic number  80.
 Defaulting to unpruned grid for atomic number  80.
 Defaulting to unpruned grid for atomic number  80.
 Defaulting to unpruned grid for atomic number  80.
 Defaulting to unpruned grid for atomic number  80.
 Defaulting to unpruned grid for atomic number  80.
 Defaulting to unpruned grid for atomic number  80.
 Defaulting to unpruned grid for atomic number  80.
 Defaulting to unpruned grid for atomic number  80.
 Defaulting to unpruned grid for atomic number  80.
 Defaulting to unpruned grid for atomic number  80.
 Defaulting to unpruned grid for atomic number  80.
 Defaulting to unpruned grid for atomic number  80.
 Defaulting to unpruned grid for atomic number  80.
 Defaulting to unpruned grid for atomic number  80.
 Defaulting to unpruned grid for atomic number  80.
 Defaulting to unpruned grid for atomic number  80.
 Defaulting to unpruned grid for atomic number  80.
 Initial convergence to 1.0D-05 achieved.  Increase integral accuracy.
 SCF Done:  E(RAPFD) =  -2767.10188274     A.U. after   10 cycles
            NFock= 10  Conv=0.56D-08     -V/T= 2.0397
 R6APFD:  NTU= -4 IXU= 1 FactS= 1.050
 PrsmSu:  requested number of processors reduced to:  13 ShMem   1 Linda.
   1 Symmetry operations used in ECPInt.
 ECPInt:  NShTT=     780 NPrTT=    3001 LenC2=     759 LenP2D=    2437.
 LDataN:  DoStor=T MaxTD1= 9 Len=  602
 Calling FoFJK, ICntrl=      2127 FMM=F ISym2X=0 I1Cent= 0 IOpClX= 0 NMat=1 NMatS=1 NMatT=0.
 Defaulting to unpruned grid for atomic number  80.
 Defaulting to unpruned grid for atomic number  80.
 Defaulting to unpruned grid for atomic number  80.
 Defaulting to unpruned grid for atomic number  80.
 Defaulting to unpruned grid for atomic number  80.
 Defaulting to unpruned grid for atomic number  80.
 Defaulting to unpruned grid for atomic number  80.
 Defaulting to unpruned grid for atomic number  80.
 Defaulting to unpruned grid for atomic number  80.
 Defaulting to unpruned grid for atomic number  80.
 Defaulting to unpruned grid for atomic number  80.
 Defaulting to unpruned grid for atomic number  80.
 Defaulting to unpruned grid for atomic number  80.
 Defaulting to unpruned grid for atomic number  80.
 Defaulting to unpruned grid for atomic number  80.
 Defaulting to unpruned grid for atomic number  80.
 Defaulting to unpruned grid for atomic number  80.
 Defaulting to unpruned grid for atomic number  80.
 Defaulting to unpruned grid for atomic number  80.
 Defaulting to unpruned grid for atomic number  80.
 Defaulting to unpruned grid for atomic number  80.
 Defaulting to unpruned grid for atomic number  80.
 Defaulting to unpruned grid for atomic number  80.
 Defaulting to unpruned grid for atomic number  80.
 ***** Axes restored to original set *****
 -------------------------------------------------------------------
 Center     Atomic                   Forces (Hartrees/Bohr)
 Number     Number              X              Y              Z
 -------------------------------------------------------------------
      1        6          -0.001468985    0.001244198    0.000420787
      2       80           0.001713532   -0.002382539   -0.000636036
      3        1           0.000095555    0.000264094   -0.000064677
      4        1           0.000129092    0.000245611    0.000104734
      5        1          -0.000070977   -0.000604094   -0.000078008
      6       35          -0.000398217    0.001232731    0.000253201
 -------------------------------------------------------------------
 Cartesian Forces:  Max     0.002382539 RMS     0.000918623

 GradGradGradGradGradGradGradGradGradGradGradGradGradGradGradGradGradGrad
 Berny optimization.
 Using GEDIIS/GDIIS optimizer.
 FormGI is forming the generalized inverse of G from B-inverse, IUseBI=4.
 Internal  Forces:  Max     0.005454772 RMS     0.001361791
 Search for a local minimum.
 Step number   3 out of a maximum of   27
 All quantities printed in internal units (Hartrees-Bohrs-Radians)
 Mixed Optimization -- RFO/linear search
 Update second derivatives using D2CorX and points    1    3    2
 DE=  9.40D-05 DEPred=-5.37D-05 R=-1.75D+00
 Trust test=-1.75D+00 RLast= 6.15D-02 DXMaxT set to 1.50D-01
 The second derivative matrix:
                          R1        R2        R3        R4        R5
           R1           0.15109
           R2          -0.00399   0.34590
           R3          -0.00398   0.00060   0.34590
           R4          -0.00401   0.00060   0.00060   0.34590
           R5          -0.04211  -0.00308  -0.00308  -0.00310   0.08685
           A1          -0.01045   0.00113   0.00113   0.00113  -0.01445
           A2          -0.00860   0.00087   0.00087   0.00087  -0.01416
           A3          -0.01085  -0.00016  -0.00017  -0.00015  -0.02311
           A4           0.01191  -0.00140  -0.00140  -0.00140   0.01411
           A5           0.00929  -0.00027  -0.00027  -0.00028   0.01852
           A6           0.00810  -0.00012  -0.00012  -0.00012   0.01806
           A7           0.02642   0.00107   0.00109   0.00098   0.03708
           A8           0.00010  -0.00000  -0.00000  -0.00000   0.00003
           D1           0.00700  -0.00093  -0.00092  -0.00094   0.00239
           D2          -0.00346   0.00084   0.00084   0.00084   0.00138
           D3           0.00545  -0.00110  -0.00109  -0.00110  -0.00060
           D4           0.00890  -0.00194  -0.00194  -0.00195  -0.00198
                          A1        A2        A3        A4        A5
           A1           0.15709
           A2          -0.00279   0.15746
           A3          -0.00357  -0.00388   0.15794
           A4           0.00294   0.00291   0.00332   0.15709
           A5           0.00312   0.00315   0.00293  -0.00307   0.15701
           A6           0.00301   0.00297   0.00305  -0.00300  -0.00295
           A7           0.00443   0.00736  -0.00812  -0.00243   0.00024
           A8           0.00000   0.00002  -0.00006   0.00001   0.00002
           D1           0.00065   0.00104  -0.00071  -0.00037  -0.00019
           D2          -0.00012  -0.00021  -0.00000   0.00005   0.00011
           D3           0.00032   0.00052  -0.00019  -0.00017  -0.00018
           D4           0.00044   0.00072  -0.00019  -0.00022  -0.00029
                          A6        A7        A8        D1        D2
           A6           0.15712
           A7          -0.00137   0.08027
           A8           0.00001   0.00039   0.00230
           D1          -0.00040   0.00932   0.00005   0.00354
           D2           0.00016  -0.00145  -0.00001  -0.00028   0.00241
           D3          -0.00028   0.00410   0.00002   0.00063  -0.00019
           D4          -0.00044   0.00555   0.00003   0.00090  -0.00030
                          D3        D4
           D3           0.00267
           D4           0.00056   0.00316
 ITU= -1  1  0
 Use linear search instead of GDIIS.
     Eigenvalues ---    0.00230   0.01186   0.05271   0.06381   0.08673
     Eigenvalues ---    0.11323   0.15992   0.16823   0.17348   0.34530
     Eigenvalues ---    0.34530   0.34742
 RFO step:  Lambda=-8.13582529D-04 EMin= 2.29829479D-03
 Quartic linear search produced a step of -0.73578.
 Maximum step size (   0.150) exceeded in Quadratic search.
    -- Step size scaled by   0.647
 Iteration  1 RMS(Cart)=  0.07423167 RMS(Int)=  0.00284692
 Iteration  2 RMS(Cart)=  0.00461160 RMS(Int)=  0.00017730
 Iteration  3 RMS(Cart)=  0.00001592 RMS(Int)=  0.00017683
 Iteration  4 RMS(Cart)=  0.00000000 RMS(Int)=  0.00017683
 Variable       Old X    -DE/DX   Delta X   Delta X   Delta X     New X
                                 (Linear)    (Quad)   (Total)
    R1        3.94026   0.00008  -0.00674   0.05198   0.04523   3.98549
    R2        2.07480  -0.00020  -0.00031   0.00177   0.00146   2.07627
    R3        2.07480  -0.00020  -0.00031   0.00177   0.00147   2.07627
    R4        2.07480  -0.00020  -0.00030   0.00176   0.00146   2.07626
    R5        4.54856   0.00055  -0.01431   0.10331   0.08900   4.63756
    A1        1.90277  -0.00024  -0.00251   0.01769   0.01532   1.91809
    A2        1.90279  -0.00037  -0.00260   0.01834   0.01584   1.91864
    A3        1.90255   0.00090  -0.00246   0.01913   0.01665   1.91920
    A4        1.91851   0.00018   0.00241  -0.01746  -0.01550   1.90300
    A5        1.91849  -0.00027   0.00250  -0.01837  -0.01616   1.90233
    A6        1.91849  -0.00020   0.00250  -0.01840  -0.01616   1.90233
    A7        3.19612  -0.00545  -0.04111  -0.08390  -0.12501   3.07111
    A8        3.14337  -0.00002  -0.00150   0.00667   0.00518   3.14855
    D1        2.08476  -0.00041  -0.00321   0.02233   0.01897   2.10374
    D2       -2.08460  -0.00010   0.00307  -0.02226  -0.01906  -2.10366
    D3        2.08463  -0.00002  -0.00318   0.02304   0.01970   2.10433
    D4       -2.11396   0.00008  -0.00625   0.04531   0.03877  -2.07519
         Item               Value     Threshold  Converged?
 Maximum Force            0.005455     0.000450     NO 
 RMS     Force            0.001362     0.000300     NO 
 Maximum Displacement     0.178036     0.001800     NO 
 RMS     Displacement     0.076468     0.001200     NO 
 Predicted change in Energy=-3.789023D-04
 GradGradGradGradGradGradGradGradGradGradGradGradGradGradGradGradGradGrad

                          Input orientation:                          
 ---------------------------------------------------------------------
 Center     Atomic      Atomic             Coordinates (Angstroms)
 Number     Number       Type             X           Y           Z
 ---------------------------------------------------------------------
      1          6           0       -4.871284    1.585497   -0.000488
      2         80           0       -3.337767    3.033340   -0.010024
      3          1           0       -4.668635    0.831216    0.772274
      4          1           0       -4.924591    1.089962   -0.979660
      5          1           0       -5.837455    2.063840    0.211317
      6         35           0       -1.674918    4.838115    0.006582
 ---------------------------------------------------------------------
                    Distance matrix (angstroms):
                    1          2          3          4          5
     1  C    0.000000
     2  Hg   2.109032   0.000000
     3  H    1.098712   2.689341   0.000000
     4  H    1.098715   2.689782   1.789339   0.000000
     5  H    1.098708   2.690235   1.788903   1.788907   0.000000
     6  Br   4.560299   2.454089   5.060027   5.057836   5.006519
                    6
     6  Br   0.000000
 Stoichiometry    CH3BrHg
 Framework group  C1[X(CH3BrHg)]
 Deg. of freedom    12
 Full point group                 C1      NOp   1
 Largest Abelian subgroup         C1      NOp   1
 Largest concise Abelian subgroup C1      NOp   1
                         Standard orientation:                         
 ---------------------------------------------------------------------
 Center     Atomic      Atomic             Coordinates (Angstroms)
 Number     Number       Type             X           Y           Z
 ---------------------------------------------------------------------
      1          6           0        2.636731   -0.091298    0.000009
      2         80           0        0.530674    0.020677   -0.000009
      3          1           0        3.039647    0.443600    0.871050
      4          1           0        3.036015    0.364438   -0.916534
      5          1           0        2.956525   -1.141436    0.045866
      6         35           0       -1.923043   -0.022084    0.000007
 ---------------------------------------------------------------------
 Rotational constants (GHZ):         145.5038643           1.0959470           1.0953614
 Standard basis: def2SVP (5D, 7F)
 There are   102 symmetry adapted cartesian basis functions of A   symmetry.
 There are    93 symmetry adapted basis functions of A   symmetry.
    93 basis functions,   191 primitive gaussians,   102 cartesian basis functions
    32 alpha electrons       32 beta electrons
       nuclear repulsion energy       237.8016962796 Hartrees.
 NAtoms=    6 NActive=    6 NUniq=    6 SFac= 1.00D+00 NAtFMM=   60 NAOKFM=F Big=F
 Integral buffers will be    131072 words long.
 Raffenetti 2 integral format.
 Two-electron integral symmetry is turned on.
 R6APFD:  NTU= -4 IXU= 1 FactS= 1.050
 Nuclear repulsion after empirical dispersion term =      237.7786922430 Hartrees.
 One-electron integrals computed using PRISM.
 PrsmSu:  requested number of processors reduced to:  13 ShMem   1 Linda.
   1 Symmetry operations used in ECPInt.
 ECPInt:  NShTT=     780 NPrTT=    3001 LenC2=     759 LenP2D=    2433.
 LDataN:  DoStor=T MaxTD1= 8 Len=  415
 NBasis=    93 RedAO= T EigKep=  8.45D-03  NBF=    93
 NBsUse=    93 1.00D-06 EigRej= -1.00D+00 NBFU=    93
 Defaulting to unpruned grid for atomic number  80.
 Lowest energy guess from the checkpoint file:  "ch3hgbr_gas_apfd_def2svp.chk"
 B after Tr=    -0.000000   -0.000000   -0.000000
         Rot=    0.999158    0.041036   -0.000015    0.000413 Ang=   4.70 deg.
 B after Tr=    -0.000000   -0.000000   -0.000000
         Rot=    1.000000   -0.000000    0.000000    0.000000 Ang=   0.00 deg.
 Keep R1 ints in memory in canonical form, NReq=31764250.
 Requested convergence on RMS density matrix=1.00D-08 within 128 cycles.
 Requested convergence on MAX density matrix=1.00D-06.
 Requested convergence on             energy=1.00D-06.
 No special actions if energy rises.
 Integral accuracy reduced to 1.0D-05 until final iterations.
 Defaulting to unpruned grid for atomic number  80.
 Defaulting to unpruned grid for atomic number  80.
 Defaulting to unpruned grid for atomic number  80.
 Defaulting to unpruned grid for atomic number  80.
 Defaulting to unpruned grid for atomic number  80.
 Defaulting to unpruned grid for atomic number  80.
 Defaulting to unpruned grid for atomic number  80.
 Defaulting to unpruned grid for atomic number  80.
 Defaulting to unpruned grid for atomic number  80.
 Defaulting to unpruned grid for atomic number  80.
 Defaulting to unpruned grid for atomic number  80.
 Defaulting to unpruned grid for atomic number  80.
 Defaulting to unpruned grid for atomic number  80.
 Defaulting to unpruned grid for atomic number  80.
 Defaulting to unpruned grid for atomic number  80.
 Defaulting to unpruned grid for atomic number  80.
 Defaulting to unpruned grid for atomic number  80.
 Defaulting to unpruned grid for atomic number  80.
 Defaulting to unpruned grid for atomic number  80.
 Defaulting to unpruned grid for atomic number  80.
 Defaulting to unpruned grid for atomic number  80.
 Defaulting to unpruned grid for atomic number  80.
 Defaulting to unpruned grid for atomic number  80.
 Defaulting to unpruned grid for atomic number  80.
 Initial convergence to 1.0D-05 achieved.  Increase integral accuracy.
 SCF Done:  E(RAPFD) =  -2767.10094809     A.U. after   11 cycles
            NFock= 11  Conv=0.47D-08     -V/T= 2.0398
 R6APFD:  NTU= -4 IXU= 1 FactS= 1.050
 PrsmSu:  requested number of processors reduced to:  13 ShMem   1 Linda.
   1 Symmetry operations used in ECPInt.
 ECPInt:  NShTT=     780 NPrTT=    3001 LenC2=     759 LenP2D=    2433.
 LDataN:  DoStor=T MaxTD1= 9 Len=  602
 Calling FoFJK, ICntrl=      2127 FMM=F ISym2X=0 I1Cent= 0 IOpClX= 0 NMat=1 NMatS=1 NMatT=0.
 Defaulting to unpruned grid for atomic number  80.
 Defaulting to unpruned grid for atomic number  80.
 Defaulting to unpruned grid for atomic number  80.
 Defaulting to unpruned grid for atomic number  80.
 Defaulting to unpruned grid for atomic number  80.
 Defaulting to unpruned grid for atomic number  80.
 Defaulting to unpruned grid for atomic number  80.
 Defaulting to unpruned grid for atomic number  80.
 Defaulting to unpruned grid for atomic number  80.
 Defaulting to unpruned grid for atomic number  80.
 Defaulting to unpruned grid for atomic number  80.
 Defaulting to unpruned grid for atomic number  80.
 Defaulting to unpruned grid for atomic number  80.
 Defaulting to unpruned grid for atomic number  80.
 Defaulting to unpruned grid for atomic number  80.
 Defaulting to unpruned grid for atomic number  80.
 Defaulting to unpruned grid for atomic number  80.
 Defaulting to unpruned grid for atomic number  80.
 Defaulting to unpruned grid for atomic number  80.
 Defaulting to unpruned grid for atomic number  80.
 Defaulting to unpruned grid for atomic number  80.
 Defaulting to unpruned grid for atomic number  80.
 Defaulting to unpruned grid for atomic number  80.
 Defaulting to unpruned grid for atomic number  80.
 ***** Axes restored to original set *****
 -------------------------------------------------------------------
 Center     Atomic                   Forces (Hartrees/Bohr)
 Number     Number              X              Y              Z
 -------------------------------------------------------------------
      1        6           0.003274672   -0.000106802   -0.000369857
      2       80          -0.001177294    0.004899418    0.000683336
      3        1           0.001546806    0.001149526    0.000109893
      4        1           0.001557655    0.001238085   -0.000226017
      5        1           0.001695255    0.002401485    0.000110436
      6       35          -0.006897094   -0.009581712   -0.000307790
 -------------------------------------------------------------------
 Cartesian Forces:  Max     0.009581712 RMS     0.003271020

 GradGradGradGradGradGradGradGradGradGradGradGradGradGradGradGradGradGrad
 Berny optimization.
 Using GEDIIS/GDIIS optimizer.
 FormGI is forming the generalized inverse of G from B-inverse, IUseBI=4.
 Internal  Forces:  Max     0.011721969 RMS     0.004083159
 Search for a local minimum.
 Step number   4 out of a maximum of   27
 All quantities printed in internal units (Hartrees-Bohrs-Radians)
 Mixed Optimization -- RFO/linear search
 Iteration  1 RMS(Cart)=  0.07562761 RMS(Int)=  0.00363443
 Iteration  2 RMS(Cart)=  0.00429485 RMS(Int)=  0.00000208
 Iteration  3 RMS(Cart)=  0.00000302 RMS(Int)=  0.00000000
 Iteration  4 RMS(Cart)=  0.00000000 RMS(Int)=  0.00000000
 Update second derivatives using D2CorX and points    1    4    3    2
 DE=  9.40D-05 DEPred=-3.79D-04 R=-2.48D-01
 Trust test=-2.48D-01 RLast= 6.15D-02 DXMaxT set to 7.50D-02
 The second derivative matrix:
                          R1        R2        R3        R4        R5
           R1           0.18144
           R2          -0.00156   0.34559
           R3          -0.00153   0.00030   0.34559
           R4          -0.00159   0.00030   0.00030   0.34559
           R5           0.00660  -0.00187  -0.00184  -0.00190   0.14699
           A1          -0.01070   0.00135   0.00135   0.00135  -0.01388
           A2          -0.00796   0.00110   0.00110   0.00110  -0.01249
           A3          -0.00125   0.00034   0.00034   0.00035  -0.00984
           A4           0.01296  -0.00152  -0.00151  -0.00152   0.01562
           A5           0.00388  -0.00064  -0.00064  -0.00064   0.01074
           A6           0.00216  -0.00049  -0.00050  -0.00049   0.00961
           A7           0.00123   0.00009   0.00009   0.00000   0.00358
           A8           0.00050   0.00001   0.00001   0.00001   0.00063
           D1           0.00917  -0.00093  -0.00092  -0.00094   0.00500
           D2          -0.00696   0.00072   0.00072   0.00073  -0.00357
           D3           0.00974  -0.00098  -0.00097  -0.00098   0.00532
           D4           0.01670  -0.00170  -0.00169  -0.00171   0.00889
                          A1        A2        A3        A4        A5
           A1           0.15701
           A2          -0.00286   0.15741
           A3          -0.00357  -0.00364   0.16069
           A4           0.00309   0.00306   0.00372   0.15684
           A5           0.00316   0.00304   0.00136  -0.00336   0.15789
           A6           0.00304   0.00284   0.00133  -0.00329  -0.00198
           A7           0.00426   0.00658  -0.01527  -0.00323   0.00439
           A8           0.00001   0.00004   0.00007   0.00000  -0.00006
           D1           0.00069   0.00112  -0.00011  -0.00037  -0.00055
           D2          -0.00018  -0.00035  -0.00106   0.00004   0.00074
           D3           0.00039   0.00069   0.00109  -0.00016  -0.00094
           D4           0.00058   0.00104   0.00215  -0.00020  -0.00168
                          A6        A7        A8        D1        D2
           A6           0.15819
           A7           0.00315   0.09851
           A8          -0.00007   0.00008   0.00231
           D1          -0.00079   0.00786   0.00007   0.00366
           D2           0.00084   0.00119  -0.00005  -0.00047   0.00276
           D3          -0.00111   0.00091   0.00007   0.00087  -0.00060
           D4          -0.00194  -0.00028   0.00011   0.00134  -0.00106
                          D3        D4
           D3           0.00317
           D4           0.00147   0.00483
 ITU= -1 -1  1  0
 Use linear search instead of GDIIS.
 Energy rises -- skip Quadratic/GDIIS search.
 Quartic linear search produced a step of -0.73578.
 Iteration  1 RMS(Cart)=  0.02344171 RMS(Int)=  0.00038404
 Iteration  2 RMS(Cart)=  0.00044775 RMS(Int)=  0.00005984
 Iteration  3 RMS(Cart)=  0.00000002 RMS(Int)=  0.00005984
 Variable       Old X    -DE/DX   Delta X   Delta X   Delta X     New X
                                 (Linear)    (Quad)   (Total)
    R1        3.94026   0.00008  -0.00674   0.00000   0.03849   3.97875
    R2        2.07480  -0.00020  -0.00031   0.00000   0.00116   2.07596
    R3        2.07480  -0.00020  -0.00031   0.00000   0.00116   2.07596
    R4        2.07480  -0.00020  -0.00030   0.00000   0.00115   2.07595
    R5        4.54856   0.00055  -0.01431   0.00000   0.07468   4.62324
    A1        1.90277  -0.00024  -0.00251   0.00000   0.01276   1.91554
    A2        1.90279  -0.00037  -0.00260   0.00000   0.01321   1.91601
    A3        1.90255   0.00090  -0.00246   0.00000   0.01420   1.91675
    A4        1.91851   0.00018   0.00241   0.00000  -0.01294   1.90557
    A5        1.91849  -0.00027   0.00250   0.00000  -0.01356   1.90493
    A6        1.91849  -0.00020   0.00250   0.00000  -0.01356   1.90492
    A7        3.19612  -0.00545  -0.04111   0.00000  -0.16611   3.03000
    A8        3.14337  -0.00002  -0.00150   0.00000   0.00368   3.14705
    D1        2.08476  -0.00041  -0.00321   0.00000   0.01581   2.10058
    D2       -2.08460  -0.00010   0.00307   0.00000  -0.01603  -2.10063
    D3        2.08463  -0.00002  -0.00318   0.00000   0.01658   2.10121
    D4       -2.11396   0.00008  -0.00625   0.00000   0.03262  -2.08134
         Item               Value     Threshold  Converged?
 Maximum Force            0.011722     0.000450     NO 
 RMS     Force            0.004083     0.000300     NO 
 Maximum Displacement     0.051008     0.001800     NO 
 RMS     Displacement     0.023518     0.001200     NO 
 Predicted change in Energy=-1.086511D-03
 GradGradGradGradGradGradGradGradGradGradGradGradGradGradGradGradGradGrad

                          Input orientation:                          
 ---------------------------------------------------------------------
 Center     Atomic      Atomic             Coordinates (Angstroms)
 Number     Number       Type             X           Y           Z
 ---------------------------------------------------------------------
      1          6           0       -4.868935    1.585926   -0.000776
      2         80           0       -3.314879    3.006348   -0.017773
      3          1           0       -4.674188    0.831823    0.773959
      4          1           0       -4.930457    1.090497   -0.979337
      5          1           0       -5.825311    2.082666    0.212298
      6         35           0       -1.700879    4.844710    0.011629
 ---------------------------------------------------------------------
                    Distance matrix (angstroms):
                    1          2          3          4          5
     1  C    0.000000
     2  Hg   2.105463   0.000000
     3  H    1.098550   2.683863   0.000000
     4  H    1.098553   2.684248   1.790707   0.000000
     5  H    1.098547   2.684844   1.790295   1.790295   0.000000
     6  Br   4.544931   2.446515   5.052225   5.050377   4.967906
                    6
     6  Br   0.000000
 Stoichiometry    CH3BrHg
 Framework group  C1[X(CH3BrHg)]
 Deg. of freedom    12
 Full point group                 C1      NOp   1
 Largest Abelian subgroup         C1      NOp   1
 Largest concise Abelian subgroup C1      NOp   1
                         Standard orientation:                         
 ---------------------------------------------------------------------
 Center     Atomic      Atomic             Coordinates (Angstroms)
 Number     Number       Type             X           Y           Z
 ---------------------------------------------------------------------
      1          6           0        2.627076   -0.144147   -0.000006
      2         80           0        0.529045    0.032613   -0.000004
      3          1           0        3.042183    0.360721    0.882947
      4          1           0        3.039107    0.318393   -0.907257
      5          1           0        2.911532   -1.204942    0.024586
      6         35           0       -1.916540   -0.034810    0.000002
 ---------------------------------------------------------------------
 Rotational constants (GHZ):         131.3746224           1.1034776           1.1019975
 Standard basis: def2SVP (5D, 7F)
 There are   102 symmetry adapted cartesian basis functions of A   symmetry.
 There are    93 symmetry adapted basis functions of A   symmetry.
    93 basis functions,   191 primitive gaussians,   102 cartesian basis functions
    32 alpha electrons       32 beta electrons
       nuclear repulsion energy       238.4668664019 Hartrees.
 NAtoms=    6 NActive=    6 NUniq=    6 SFac= 1.00D+00 NAtFMM=   60 NAOKFM=F Big=F
 Integral buffers will be    131072 words long.
 Raffenetti 2 integral format.
 Two-electron integral symmetry is turned on.
 R6APFD:  NTU= -4 IXU= 1 FactS= 1.050
 Nuclear repulsion after empirical dispersion term =      238.4436846979 Hartrees.
 One-electron integrals computed using PRISM.
 PrsmSu:  requested number of processors reduced to:  13 ShMem   1 Linda.
   1 Symmetry operations used in ECPInt.
 ECPInt:  NShTT=     780 NPrTT=    3001 LenC2=     759 LenP2D=    2434.
 LDataN:  DoStor=T MaxTD1= 8 Len=  415
 NBasis=    93 RedAO= T EigKep=  8.42D-03  NBF=    93
 NBsUse=    93 1.00D-06 EigRej= -1.00D+00 NBFU=    93
 Defaulting to unpruned grid for atomic number  80.
 Lowest energy guess from the checkpoint file:  "ch3hgbr_gas_apfd_def2svp.chk"
 B after Tr=    -0.000000   -0.000000   -0.000000
         Rot=    0.999528    0.030730   -0.000019    0.000668 Ang=   3.52 deg.
 B after Tr=    -0.000000    0.000000    0.000000
         Rot=    1.000000   -0.000000    0.000000    0.000000 Ang=   0.00 deg.
 Keep R1 ints in memory in canonical form, NReq=31764250.
 Requested convergence on RMS density matrix=1.00D-08 within 128 cycles.
 Requested convergence on MAX density matrix=1.00D-06.
 Requested convergence on             energy=1.00D-06.
 No special actions if energy rises.
 Integral accuracy reduced to 1.0D-05 until final iterations.
 Defaulting to unpruned grid for atomic number  80.
 Defaulting to unpruned grid for atomic number  80.
 Defaulting to unpruned grid for atomic number  80.
 Defaulting to unpruned grid for atomic number  80.
 Defaulting to unpruned grid for atomic number  80.
 Defaulting to unpruned grid for atomic number  80.
 Defaulting to unpruned grid for atomic number  80.
 Defaulting to unpruned grid for atomic number  80.
 Defaulting to unpruned grid for atomic number  80.
 Defaulting to unpruned grid for atomic number  80.
 Defaulting to unpruned grid for atomic number  80.
 Defaulting to unpruned grid for atomic number  80.
 Defaulting to unpruned grid for atomic number  80.
 Defaulting to unpruned grid for atomic number  80.
 Defaulting to unpruned grid for atomic number  80.
 Defaulting to unpruned grid for atomic number  80.
 Defaulting to unpruned grid for atomic number  80.
 Defaulting to unpruned grid for atomic number  80.
 Defaulting to unpruned grid for atomic number  80.
 Defaulting to unpruned grid for atomic number  80.
 Defaulting to unpruned grid for atomic number  80.
 Defaulting to unpruned grid for atomic number  80.
 Defaulting to unpruned grid for atomic number  80.
 Defaulting to unpruned grid for atomic number  80.
 Initial convergence to 1.0D-05 achieved.  Increase integral accuracy.
 SCF Done:  E(RAPFD) =  -2767.10083662     A.U. after   11 cycles
            NFock= 11  Conv=0.60D-08     -V/T= 2.0398
 R6APFD:  NTU= -4 IXU= 1 FactS= 1.050
 PrsmSu:  requested number of processors reduced to:  13 ShMem   1 Linda.
   1 Symmetry operations used in ECPInt.
 ECPInt:  NShTT=     780 NPrTT=    3001 LenC2=     759 LenP2D=    2434.
 LDataN:  DoStor=T MaxTD1= 9 Len=  602
 Calling FoFJK, ICntrl=      2127 FMM=F ISym2X=0 I1Cent= 0 IOpClX= 0 NMat=1 NMatS=1 NMatT=0.
 Defaulting to unpruned grid for atomic number  80.
 Defaulting to unpruned grid for atomic number  80.
 Defaulting to unpruned grid for atomic number  80.
 Defaulting to unpruned grid for atomic number  80.
 Defaulting to unpruned grid for atomic number  80.
 Defaulting to unpruned grid for atomic number  80.
 Defaulting to unpruned grid for atomic number  80.
 Defaulting to unpruned grid for atomic number  80.
 Defaulting to unpruned grid for atomic number  80.
 Defaulting to unpruned grid for atomic number  80.
 Defaulting to unpruned grid for atomic number  80.
 Defaulting to unpruned grid for atomic number  80.
 Defaulting to unpruned grid for atomic number  80.
 Defaulting to unpruned grid for atomic number  80.
 Defaulting to unpruned grid for atomic number  80.
 Defaulting to unpruned grid for atomic number  80.
 Defaulting to unpruned grid for atomic number  80.
 Defaulting to unpruned grid for atomic number  80.
 Defaulting to unpruned grid for atomic number  80.
 Defaulting to unpruned grid for atomic number  80.
 Defaulting to unpruned grid for atomic number  80.
 Defaulting to unpruned grid for atomic number  80.
 Defaulting to unpruned grid for atomic number  80.
 Defaulting to unpruned grid for atomic number  80.
 ***** Axes restored to original set *****
 -------------------------------------------------------------------
 Center     Atomic                   Forces (Hartrees/Bohr)
 Number     Number              X              Y              Z
 -------------------------------------------------------------------
      1        6           0.003901109   -0.001447724   -0.000677556
      2       80          -0.003190285    0.006163424    0.001199003
      3        1           0.001137223    0.000818252   -0.000011261
      4        1           0.001177979    0.000862997   -0.000092156
      5        1           0.001707318    0.002416449    0.000110176
      6       35          -0.004733344   -0.008813398   -0.000528205
 -------------------------------------------------------------------
 Cartesian Forces:  Max     0.008813398 RMS     0.003167602

 GradGradGradGradGradGradGradGradGradGradGradGradGradGradGradGradGradGrad
 Berny optimization.
 Using GEDIIS/GDIIS optimizer.
 FormGI is forming the generalized inverse of G from B-inverse, IUseBI=4.
 Internal  Forces:  Max     0.010609121 RMS     0.004092452
 Search for a local minimum.
 Step number   5 out of a maximum of   27
 All quantities printed in internal units (Hartrees-Bohrs-Radians)
 Mixed Optimization -- RFO/linear search
 Update second derivatives using D2CorX and points    1    4    3    5    2
 The second derivative matrix:
                          R1        R2        R3        R4        R5
           R1           0.18574
           R2          -0.00209   0.34557
           R3          -0.00206   0.00027   0.34556
           R4          -0.00212   0.00027   0.00027   0.34557
           R5           0.00426  -0.00151  -0.00148  -0.00152   0.14926
           A1          -0.01115   0.00148   0.00148   0.00148  -0.01368
           A2          -0.00829   0.00121   0.00121   0.00120  -0.01236
           A3          -0.00144   0.00041   0.00041   0.00042  -0.00980
           A4           0.01406  -0.00181  -0.00180  -0.00181   0.01513
           A5           0.00412  -0.00073  -0.00073  -0.00073   0.01063
           A6           0.00231  -0.00056  -0.00056  -0.00056   0.00955
           A7           0.00148   0.00006   0.00006  -0.00003   0.00332
           A8           0.00059  -0.00001  -0.00001  -0.00001   0.00061
           D1           0.00959  -0.00101  -0.00100  -0.00102   0.00483
           D2          -0.00750   0.00084   0.00084   0.00085  -0.00333
           D3           0.01043  -0.00112  -0.00112  -0.00113   0.00504
           D4           0.01792  -0.00197  -0.00196  -0.00198   0.00838
                          A1        A2        A3        A4        A5
           A1           0.15698
           A2          -0.00289   0.15739
           A3          -0.00362  -0.00368   0.16061
           A4           0.00312   0.00310   0.00381   0.15681
           A5           0.00320   0.00308   0.00141  -0.00343   0.15785
           A6           0.00307   0.00287   0.00138  -0.00336  -0.00202
           A7           0.00428   0.00660  -0.01516  -0.00326   0.00435
           A8           0.00001   0.00004   0.00008   0.00000  -0.00006
           D1           0.00067   0.00112  -0.00009  -0.00033  -0.00055
           D2          -0.00018  -0.00035  -0.00108   0.00001   0.00076
           D3           0.00038   0.00069   0.00112  -0.00011  -0.00096
           D4           0.00056   0.00105   0.00220  -0.00012  -0.00172
                          A6        A7        A8        D1        D2
           A6           0.15815
           A7           0.00310   0.09833
           A8          -0.00008   0.00007   0.00231
           D1          -0.00080   0.00784   0.00007   0.00369
           D2           0.00086   0.00120  -0.00005  -0.00050   0.00279
           D3          -0.00113   0.00089   0.00007   0.00091  -0.00065
           D4          -0.00199  -0.00030   0.00012   0.00141  -0.00113
                          D3        D4
           D3           0.00322
           D4           0.00157   0.00500
 ITU=  0 -1 -1  1  0
 Use linear search instead of GDIIS.
 Energy rises -- skip Quadratic/GDIIS search.
 Quartic linear search produced a step of -0.85983.
[...]
 IR Inten    --      6.7080                 0.5631                 0.5630
  Atom  AN      X      Y      Z        X      Y      Z        X      Y      Z
     1   6    -0.04   0.00   0.00     0.00  -0.09   0.02    -0.00  -0.02  -0.09
     2  80     0.00  -0.00   0.00    -0.00   0.00  -0.00     0.00   0.00   0.00
     3   1     0.17   0.43  -0.35     0.23   0.52  -0.43    -0.13  -0.30   0.22
     4   1     0.17  -0.51  -0.20    -0.23   0.61   0.25    -0.13   0.37   0.13
     5   1     0.17   0.09   0.54    -0.00  -0.02  -0.01     0.26   0.12   0.76
     6  35    -0.00   0.00   0.00     0.00  -0.00   0.00     0.00  -0.00  -0.00

 -------------------
 - Thermochemistry -
 -------------------
 Temperature   298.150 Kelvin.  Pressure   1.00000 Atm.
 Atom     1 has atomic number  6 and mass  12.00000
 Atom     2 has atomic number 80 and mass 201.97060
 Atom     3 has atomic number  1 and mass   1.00783
 Atom     4 has atomic number  1 and mass   1.00783
 Atom     5 has atomic number  1 and mass   1.00783
 Atom     6 has atomic number 35 and mass  78.91834
 Molecular mass:   295.91241 amu.
 Principal axes and moments of inertia in atomic units:
                           1         2         3
     Eigenvalues --    11.624011591.577881591.57790
           X            1.00000  -0.00000  -0.00001
           Y            0.00000   1.00000  -0.00077
           Z            0.00001   0.00077   1.00000
 This molecule is an asymmetric top.
 Rotational symmetry number  1.
 Rotational temperatures (Kelvin)      7.45129     0.05442     0.05442
 Rotational constants (GHZ):         155.25976     1.13393     1.13393
 Zero-point vibrational energy      96955.7 (Joules/Mol)
                                   23.17297 (Kcal/Mol)
 Warning -- explicit consideration of   4 degrees of freedom as
           vibrations may cause significant error
 Vibrational temperatures:    166.52   166.63   374.05   858.29  1126.90
          (Kelvin)           1127.01  1740.00  2058.18  2058.22  4428.92
                             4608.71  4608.76
 
 Zero-point correction=                           0.036928 (Hartree/Particle)
 Thermal correction to Energy=                    0.042001
 Thermal correction to Enthalpy=                  0.042945
 Thermal correction to Gibbs Free Energy=         0.006449
 Sum of electronic and zero-point Energies=          -2767.065104
 Sum of electronic and thermal Energies=             -2767.060031
 Sum of electronic and thermal Enthalpies=           -2767.059087
 Sum of electronic and thermal Free Energies=        -2767.095584
 
                     E (Thermal)             CV                S
                      KCal/Mol        Cal/Mol-Kelvin    Cal/Mol-Kelvin
 Total                   26.356             14.366             76.814
 Electronic               0.000              0.000              0.000
 Translational            0.889              2.981             42.952
 Rotational               0.889              2.981             24.891
 Vibrational             24.579              8.405              8.971
 Vibration     1          0.608              1.936              3.170
 Vibration     2          0.608              1.936              3.169
 Vibration     3          0.668              1.746              1.662
 Vibration     4          0.954              1.039              0.456
                       Q            Log10(Q)             Ln(Q)
 Total Bot       0.108098D-02         -2.966184         -6.829892
 Total V=0       0.104645D+15         14.019719         32.281597
 Vib (Bot)       0.879560D-16        -16.055734        -36.969695
 Vib (Bot)    1  0.176746D+01          0.247349          0.569541
 Vib (Bot)    2  0.176622D+01          0.247045          0.568841
 Vib (Bot)    3  0.747126D+00         -0.126606         -0.291522
 Vib (Bot)    4  0.251200D+00         -0.599981         -1.381507
 Vib (V=0)       0.851470D+01          0.930169          2.141794
 Vib (V=0)    1  0.233682D+01          0.368625          0.848790
 Vib (V=0)    2  0.233563D+01          0.368404          0.848281
 Vib (V=0)    3  0.139900D+01          0.145817          0.335756
 Vib (V=0)    4  0.105955D+01          0.025123          0.057849
 Electronic      0.100000D+01          0.000000          0.000000
 Translational   0.200078D+09          8.301199         19.114216
 Rotational      0.614259D+05          4.788352         11.025587
 ***** Axes restored to original set *****
 -------------------------------------------------------------------
 Center     Atomic                   Forces (Hartrees/Bohr)
 Number     Number              X              Y              Z
 -------------------------------------------------------------------
      1        6           0.000011981    0.000008988   -0.000000383
      2       80           0.000003471   -0.000001735   -0.000001161
      3        1          -0.000003221   -0.000002426   -0.000000387
      4        1          -0.000002911   -0.000002174    0.000001268
      5        1          -0.000004625   -0.000000599    0.000000512
      6       35          -0.000004694   -0.000002054    0.000000151
 -------------------------------------------------------------------
 Cartesian Forces:  Max     0.000011981 RMS     0.000004219
 FormGI is forming the generalized inverse of G from B-inverse, IUseBI=4.

 GradGradGradGradGradGradGradGradGradGradGradGradGradGradGradGradGradGrad
 Berny optimization.
 Internal  Forces:  Max     0.000009388 RMS     0.000003154
 Search for a local minimum.
 Step number   1 out of a maximum of    2
 All quantities printed in internal units (Hartrees-Bohrs-Radians)
 Second derivative matrix not updated -- analytic derivatives used.
 The second derivative matrix:
                          R1        R2        R3        R4        R5
           R1           0.18813
           R2           0.00131   0.35351
           R3           0.00130  -0.00022   0.35351
           R4           0.00130  -0.00022  -0.00022   0.35352
           R5           0.00269   0.00045   0.00045   0.00045   0.14888
           A1           0.00243  -0.00076  -0.00039  -0.00137   0.00065
           A2           0.00381   0.00003  -0.00047  -0.00353   0.00102
           A3           0.00749  -0.00319  -0.00313  -0.00146   0.00200
           A4          -0.00089   0.00348   0.00344  -0.00600  -0.00024
           A5          -0.00594   0.00636  -0.00574   0.00554  -0.00158
           A6          -0.00668  -0.00598   0.00622   0.00671  -0.00178
           A7          -0.00000   0.00003   0.00003  -0.00006  -0.00000
           A8          -0.00000  -0.00002   0.00002  -0.00000   0.00000
           D1           0.00476   0.00118   0.00131  -0.00743   0.00127
           D2          -0.00397  -0.00094   0.00584  -0.00077  -0.00106
           D3           0.00522  -0.00551   0.00126  -0.00117   0.00139
           D4           0.00919  -0.00456  -0.00458  -0.00041   0.00245
                          A1        A2        A3        A4        A5
           A1           0.01553
           A2          -0.00712   0.02909
           A3          -0.01000  -0.01689   0.05683
           A4          -0.00738  -0.00124   0.02176   0.03538
           A5          -0.01153   0.02093  -0.02907  -0.02143   0.06638
           A6           0.02047  -0.02470  -0.02215  -0.02690  -0.02559
           A7           0.00465   0.00694  -0.01561  -0.00338   0.00429
           A8          -0.00264   0.00348  -0.00043   0.00029   0.00161
           D1           0.01019   0.00833  -0.00945   0.01149  -0.01418
           D2          -0.00593   0.00643  -0.00503   0.00860  -0.00805
           D3          -0.00250   0.01038   0.00077  -0.00438  -0.00757
           D4           0.00343   0.00395   0.00579  -0.01298   0.00048
                          A6        A7        A8        D1        D2
           A6           0.07845
           A7           0.00305   0.10000
           A8          -0.00230   0.00001   0.01528
           D1          -0.00624   0.00788  -0.00092   0.02444
           D2           0.00391   0.00128   0.00251   0.00185   0.01516
           D3           0.00345   0.00078   0.00260   0.00065   0.00714
           D4          -0.00046  -0.00050   0.00009  -0.00119  -0.00802
                          D3        D4
           D3           0.01522
           D4           0.00808   0.01610
 ITU=  0
     Eigenvalues ---    0.01385   0.03041   0.03492   0.05120   0.09235
     Eigenvalues ---    0.11795   0.12265   0.14885   0.19089   0.35344
     Eigenvalues ---    0.35441   0.35449
 Angle between quadratic step and forces=  36.08 degrees.
 Linear search not attempted -- first point.
 Iteration  1 RMS(Cart)=  0.00007345 RMS(Int)=  0.00000000
 Iteration  2 RMS(Cart)=  0.00000000 RMS(Int)=  0.00000000
 Variable       Old X    -DE/DX   Delta X   Delta X   Delta X     New X
                                 (Linear)    (Quad)   (Total)
    R1        3.94021  -0.00000   0.00000  -0.00003  -0.00003   3.94018
    R2        2.07426   0.00000   0.00000   0.00000   0.00000   2.07426
    R3        2.07426  -0.00000   0.00000   0.00000   0.00000   2.07426
    R4        2.07425   0.00000   0.00000   0.00001   0.00001   2.07426
    R5        4.55175  -0.00000   0.00000  -0.00004  -0.00004   4.55172
    A1        1.90311   0.00000   0.00000   0.00006   0.00006   1.90317
    A2        1.90312   0.00000   0.00000   0.00006   0.00006   1.90317
    A3        1.90316   0.00000   0.00000   0.00000   0.00000   1.90316
    A4        1.91808  -0.00000   0.00000  -0.00004  -0.00004   1.91804
    A5        1.91808  -0.00000   0.00000  -0.00004  -0.00004   1.91804
    A6        1.91808  -0.00000   0.00000  -0.00004  -0.00004   1.91804
    A7        3.14169  -0.00001   0.00000  -0.00011  -0.00011   3.14158
    A8        3.14156  -0.00000   0.00000  -0.00000  -0.00000   3.14156
    D1        2.08511   0.00000   0.00000   0.00009   0.00009   2.08520
    D2       -2.08514  -0.00000   0.00000  -0.00006  -0.00006  -2.08519
    D3        2.08515   0.00000   0.00000   0.00004   0.00004   2.08519
    D4       -2.11290   0.00000   0.00000   0.00010   0.00010  -2.11280
         Item               Value     Threshold  Converged?
 Maximum Force            0.000009     0.000450     YES
 RMS     Force            0.000003     0.000300     YES
 Maximum Displacement     0.000139     0.001800     YES
 RMS     Displacement     0.000073     0.001200     YES
 Predicted change in Energy=-1.158140D-09
 Optimization completed.
    -- Stationary point found.
                           ----------------------------
                           !   Optimized Parameters   !
                           ! (Angstroms and Degrees)  !
 --------------------------                            --------------------------
 ! Name  Definition              Value          Derivative Info.                !
 --------------------------------------------------------------------------------
 ! R1    R(1,2)                  2.0851         -DE/DX =    0.0                 !
 ! R2    R(1,3)                  1.0977         -DE/DX =    0.0                 !
 ! R3    R(1,4)                  1.0977         -DE/DX =    0.0                 !
 ! R4    R(1,5)                  1.0976         -DE/DX =    0.0                 !
 ! R5    R(2,6)                  2.4087         -DE/DX =    0.0                 !
 ! A1    A(2,1,3)              109.04           -DE/DX =    0.0                 !
 ! A2    A(2,1,4)              109.0405         -DE/DX =    0.0                 !
 ! A3    A(2,1,5)              109.0432         -DE/DX =    0.0                 !
 ! A4    A(3,1,4)              109.8977         -DE/DX =    0.0                 !
 ! A5    A(3,1,5)              109.8978         -DE/DX =    0.0                 !
 ! A6    A(4,1,5)              109.8979         -DE/DX =    0.0                 !
 ! A7    L(1,2,6,5,-1)         180.0054         -DE/DX =    0.0                 !
 ! A8    L(1,2,6,5,-2)         179.9982         -DE/DX =    0.0                 !
 ! D1    D(2,1,4,3)            119.4678         -DE/DX =    0.0                 !
 ! D2    D(2,1,5,3)           -119.4695         -DE/DX =    0.0                 !
 ! D3    D(2,1,5,4)            119.4703         -DE/DX =    0.0                 !
 ! D4    D(3,1,5,4)           -121.0602         -DE/DX =    0.0                 !
 --------------------------------------------------------------------------------
 GradGradGradGradGradGradGradGradGradGradGradGradGradGradGradGradGradGrad


 ----------------------------------------------------------------------

 Electric dipole moment (input orientation):
 (Debye = 10**-18 statcoulomb cm , SI units = C m)
                  (au)            (Debye)         (10**-30 SI)
   Tot        0.126726D+01      0.322106D+01      0.107443D+02
   x         -0.896788D+00     -0.227941D+01     -0.760329D+01
   y         -0.895391D+00     -0.227586D+01     -0.759144D+01
   z          0.378963D-04      0.963227D-04      0.321298D-03

 Dipole polarizability, Alpha (input orientation).
 (esu units = cm**3 , SI units = C**2 m**2 J**-1)
 Alpha(0;0):
               (au)            (10**-24 esu)      (10**-40 SI)
   iso        0.577681D+02      0.856036D+01      0.952468D+01
   aniso      0.539654D+02      0.799685D+01      0.889770D+01
   xx         0.668027D+02      0.989913D+01      0.110143D+02
   yx         0.269827D+02      0.399843D+01      0.444885D+01
   yy         0.667220D+02      0.988718D+01      0.110010D+02
   zx        -0.128863D-02     -0.190956D-03     -0.212467D-03
   zy        -0.103573D-02     -0.153479D-03     -0.170768D-03
   zz         0.397798D+02      0.589475D+01      0.655880D+01

 ----------------------------------------------------------------------

 Dipole orientation:
     6         -6.09707948          6.10647402          4.38451801
    80         -6.09730001          6.10673332          0.44430718
     1         -4.13936382          6.21668517          5.06109670
     1         -6.98035337          4.35588930          5.06115143
     1         -7.17134975          7.74665204          5.06147386
    35         -6.09727336          6.10670438         -4.10744615

 Electric dipole moment (dipole orientation):
 (Debye = 10**-18 statcoulomb cm , SI units = C m)
                  (au)            (Debye)         (10**-30 SI)
   Tot        0.126726D+01      0.322106D+01      0.107443D+02
   x          0.000000D+00      0.000000D+00      0.000000D+00
   y          0.000000D+00      0.000000D+00      0.000000D+00
   z          0.126726D+01      0.322106D+01      0.107443D+02

 Dipole polarizability, Alpha (dipole orientation).
 (esu units = cm**3 , SI units = C**2 m**2 J**-1)
 Alpha(0;0):
               (au)            (10**-24 esu)      (10**-40 SI)
   iso        0.577681D+02      0.856036D+01      0.952468D+01
   aniso      0.539654D+02      0.799685D+01      0.889770D+01
   xx         0.397795D+02      0.589471D+01      0.655875D+01
   yx         0.849131D-04      0.125828D-04      0.140003D-04
   yy         0.397798D+02      0.589477D+01      0.655881D+01
   zx         0.126280D-02      0.187128D-03      0.208208D-03
   zy        -0.122241D-02     -0.181143D-03     -0.201548D-03
   zz         0.937451D+02      0.138916D+02      0.154565D+02

 ----------------------------------------------------------------------
 1\1\GINC-GRANADO-COMPUTE-1\Freq\RAPFD\def2SVP\C1H3Br1Hg1\ROOT\25-Aug-2
 022\0\\#N Geom=AllCheck Guess=TCheck SCRF=Check GenChk RAPFD/def2SVP F
 req\\Optimization MeHgbr-apfd-def2svp-gas phase\\0,1\C,-4.8683022468,1
 .5920984856,0.0000242668\Hg,-3.3929130227,3.0654425168,-0.0000237189\H
 ,-4.6336277107,0.8503643188,0.7743605209\H,-4.8918619308,1.1088860788,
 -0.9852615278\H,-5.8395701133,2.0578824189,0.2109970439\Br,-1.68837397
 56,4.7672961811,-0.0000965849\\Version=EM64L-G16RevA.03\State=1-A\HF=-
 2767.1020327\RMSD=1.535e-09\RMSF=4.219e-06\ZeroPoint=0.0369285\Thermal
 =0.0420013\Dipole=-0.8967882,-0.8953909,0.0000379\DipoleDeriv=-0.11985
 93,0.0647248,0.0000007,0.0647374,-0.1200194,0.0000029,0.0000007,-0.000
 0017,-0.1846706,0.860589,0.5032558,-0.0000224,0.5032324,0.8590398,-0.0
 000237,-0.0000197,-0.0000221,0.356571,0.0166967,-0.0793763,0.0155989,-
 0.0411546,-0.0576348,0.0737996,-0.0147208,0.0435197,0.0303008,0.011263
 5,-0.0835303,-0.0394471,-0.0655429,-0.0236155,-0.0742875,-0.0008612,-0
 .0357523,0.0017145,-0.096694,-0.0106527,0.0238518,-0.0668811,0.0129993
 ,0.0004899,0.0155846,-0.007761,0.0730606,-0.671996,-0.3944213,0.000018
 1,-0.3943912,-0.6707693,0.0000188,0.0000164,0.0000174,-0.2769762\Polar
 =66.8026587,26.9827214,66.7220195,-0.0012886,-0.0010357,39.779757\Quad
 rupole=-0.4250347,-0.4211022,0.8461369,-1.269202,0.0000504,0.0000531\P
 G=C01 [X(C1H3Br1Hg1)]\NImag=0\\0.44437620,-0.10003749,0.44461581,-0.00
 000202,0.00000289,0.54451940,-0.09635006,-0.06590968,0.00000347,0.1853
 8394,-0.06590571,-0.09616457,0.00000310,0.14646255,0.18495481,0.000000
 59,0.00000239,-0.03034858,-0.00000966,-0.00000631,0.03871134,-0.047747
 33,0.04331118,-0.03721697,0.00145470,-0.01040555,0.01027993,0.05363395
 ,0.05302419,-0.17421420,0.14519806,0.00167949,-0.00826297,0.00701119,-
 0.04926557,0.18010650,-0.04492358,0.13750315,-0.18880599,0.00069380,-0
 .00256159,0.00147830,0.04811029,-0.14840306,0.19807888,-0.03644332,0.0
 0113666,-0.01403479,-0.00191759,-0.00640336,-0.01198124,-0.00128818,-0
 .00355763,-0.00559076,0.03887658,0.00571247,-0.09595252,-0.12329864,-0
 .00071386,-0.00648777,-0.01001499,0.00011598,0.01058074,0.01985547,-0.
 00106627,0.09837913,-0.00422654,-0.11350488,-0.27837036,0.00021353,0.0
 0216436,0.00307743,0.00063024,-0.01140198,-0.01548411,0.00491033,0.122
 62734,0.29456033,-0.27072614,0.12248638,0.05125005,-0.00936785,0.00334
 511,0.00170743,-0.00369485,-0.00005660,0.00228767,0.00254227,-0.002331
 23,-0.00205740,0.28177715,0.10819778,-0.08517897,-0.02190568,-0.014427
 79,0.00495443,0.00300484,0.01709571,-0.00751606,-0.00642616,0.01114946
 ,-0.00553593,-0.00004899,-0.12161183,0.09624615,0.04915166,-0.02400347
 ,-0.05487604,-0.00090410,0.00039756,-0.00091184,-0.02045519,0.00833353
 ,0.00501872,0.02518561,-0.01031314,-0.00319833,-0.05302537,0.02578200,
 0.05380616,0.00689065,-0.00098705,0.00000026,-0.07920315,-0.06709304,0
 .00000295,-0.00235830,-0.00182387,-0.00057743,-0.00176977,-0.00171709,
 0.00052984,-0.00053058,-0.00040333,0.00004739,0.07697115,-0.00099124,0
 .00689445,0.00000027,-0.06709070,-0.07899392,0.00000288,-0.00085175,-0
 .00069400,0.00003219,-0.00125886,-0.00098365,0.00016415,-0.00183182,-0
 .00296961,-0.00019648,0.07202438,0.07674672,-0.00000011,-0.00000007,0.
 00788157,0.00000295,0.00000287,-0.01200664,-0.00134830,-0.00073774,-0.
 00028580,0.00151085,0.00114396,-0.00058496,-0.00016237,-0.00040601,0.0
 0016134,-0.00000302,-0.00000301,0.00483447\\-0.00001198,-0.00000899,0.
 00000038,-0.00000347,0.00000174,0.00000116,0.00000322,0.00000243,0.000
 00039,0.00000291,0.00000217,-0.00000127,0.00000463,0.00000060,-0.00000
 051,0.00000469,0.00000205,-0.00000015\\\@


 THE MOST BEAUTIFUL EXPERIENCE WE CAN HAVE IS THE MYSTERIOUS.
 IT IS THE FUNDAMENTAL EMOTION WHICH STANDS AT AT THE CRADLE 
 OF TRUE ART AND TRUE SCIENCE.

                                    -- ALBERT EINSTEIN
 Job cpu time:       0 days  0 hours 20 minutes 20.9 seconds.
 Elapsed time:       0 days  0 hours  6 minutes 24.4 seconds.
 File lengths (MBytes):  RWF=     13 Int=      0 D2E=      0 Chk=      3 Scr=      1
 Normal termination of Gaussian 16 at Thu Aug 25 07:25:30 2022.
k=      3 Scr=      1
 Normal termination of Gaussian 16 at Thu Aug 25 07:25:30 2022.
ES" TO A THEORY. IN THE MOST FAVORABLE CASES
 IT SAYS "MAYBE", AND IN THE GREAT MAJORITY OF CASES SIMPLY "NO"...
 PROBABLY EVERY THEORY WILL SOME DAY EXPERIENCE ITS "NO" - MOST
 THEORIES, SOON AFTER CONCEPTION.  -- A.EINSTEIN, NOV 11, 1922.
 Job cpu time:       0 days  0 hours 21 minutes 22.2 seconds.
 Elapsed time:       0 days  0 hours  7 minutes  1.8 seconds.
 File lengths (MBytes):  RWF=     13 Int=      0 D2E=      0 Chk=      3 Scr=      1
 Normal termination of Gaussian 16 at Thu Aug 25 07:25:27 2022.
