 Entering Gaussian System, Link 0=g16
 Input=input.gjf
 Output=input.log
 Initial command:
 /opt/ohpc/pub/apps/gaussian/G16x86_64_legacy_CPUs_linux_binary/g16/l1.exe "/tmp/Gau-39148.inp" -scrdir="/tmp/"
 Entering Link 1 = /opt/ohpc/pub/apps/gaussian/G16x86_64_legacy_CPUs_linux_binary/g16/l1.exe PID=     39156.
  
 Copyright (c) 1988,1990,1992,1993,1995,1998,2003,2009,2016,
            Gaussian, Inc.  All Rights Reserved.
  
 This is part of the Gaussian(R) 16 program.  It is based on
 the Gaussian(R) 09 system (copyright 2009, Gaussian, Inc.),
 the Gaussian(R) 03 system (copyright 2003, Gaussian, Inc.),
 the Gaussian(R) 98 system (copyright 1998, Gaussian, Inc.),
 the Gaussian(R) 94 system (copyright 1995, Gaussian, Inc.),
 the Gaussian 92(TM) system (copyright 1992, Gaussian, Inc.),
 the Gaussian 90(TM) system (copyright 1990, Gaussian, Inc.),
 the Gaussian 88(TM) system (copyright 1988, Gaussian, Inc.),
 the Gaussian 86(TM) system (copyright 1986, Carnegie Mellon
 University), and the Gaussian 82(TM) system (copyright 1983,
 Carnegie Mellon University). Gaussian is a federally registered
 trademark of Gaussian, Inc.
  
 This software contains proprietary and confidential information,
 including trade secrets, belonging to Gaussian, Inc.
  
 This software is provided under written license and may be
 used, copied, transmitted, or stored only in accord with that
 written license.
  
 The following legend is applicable only to US Government
 contracts under FAR:
  
                    RESTRICTED RIGHTS LEGEND
  
 Use, reproduction and disclosure by the US Government is
 subject to restrictions as set forth in subparagraphs (a)
 and (c) of the Commercial Computer Software - Restricted
 Rights clause in FAR 52.227-19.
  
 Gaussian, Inc.
 340 Quinnipiac St., Bldg. 40, Wallingford CT 06492
  
  
 ---------------------------------------------------------------
 Warning -- This program may not be used in any manner that
 competes with the business of Gaussian, Inc. or will provide
 assistance to any competitor of Gaussian, Inc.  The licensee
 of this program is prohibited from giving any competitor of
 Gaussian, Inc. access to this program.  By using this program,
 the user acknowledges that Gaussian, Inc. is engaged in the
 business of creating and licensing software in the field of
 computational chemistry and represents and warrants to the
 licensee that it is not a competitor of Gaussian, Inc. and that
 it will not use this program in any manner prohibited above.
 ---------------------------------------------------------------
  

 Cite this work as:
 Gaussian 16, Revision A.03,
 M. J. Frisch, G. W. Trucks, H. B. Schlegel, G. E. Scuseria, 
 M. A. Robb, J. R. Cheeseman, G. Scalmani, V. Barone, 
 G. A. Petersson, H. Nakatsuji, X. Li, M. Caricato, A. V. Marenich, 
 J. Bloino, B. G. Janesko, R. Gomperts, B. Mennucci, H. P. Hratchian, 
 J. V. Ortiz, A. F. Izmaylov, J. L. Sonnenberg, D. Williams-Young, 
 F. Ding, F. Lipparini, F. Egidi, J. Goings, B. Peng, A. Petrone, 
 T. Henderson, D. Ranasinghe, V. G. Zakrzewski, J. Gao, N. Rega, 
 G. Zheng, W. Liang, M. Hada, M. Ehara, K. Toyota, R. Fukuda, 
 J. Hasegawa, M. Ishida, T. Nakajima, Y. Honda, O. Kitao, H. Nakai, 
 T. Vreven, K. Throssell, J. A. Montgomery, Jr., J. E. Peralta, 
 F. Ogliaro, M. J. Bearpark, J. J. Heyd, E. N. Brothers, K. N. Kudin, 
 V. N. Staroverov, T. A. Keith, R. Kobayashi, J. Normand, 
 K. Raghavachari, A. P. Rendell, J. C. Burant, S. S. Iyengar, 
 J. Tomasi, M. Cossi, J. M. Millam, M. Klene, C. Adamo, R. Cammi, 
 J. W. Ochterski, R. L. Martin, K. Morokuma, O. Farkas, 
 J. B. Foresman, and D. J. Fox, Gaussian, Inc., Wallingford CT, 2016.
 
 ******************************************
 Gaussian 16:  EM64L-G16RevA.03 25-Dec-2016
                16-Aug-2023 
 ******************************************
 %NProcShared=24
 Will use up to   24 processors via shared memory.
 %Chk=ch3hgcl_gas_mp2.chk
 ------------------------------------------------
 #Opt Freq mp2/Def2SVP int=UltraFine scf=xqc test
 ------------------------------------------------
 1/18=20,19=15,38=1/1,3;
 2/9=110,12=2,17=6,18=5,40=1/2;
 3/5=43,7=101,11=9,25=1,30=1,71=1,75=-5/1,2,3;
 4//1;
 5/5=2,8=3,13=1,38=5/2,8;
 8/6=4,10=1/1;
 9/15=2,16=-3/6;
 10/5=1/2;
 6/7=2,8=2,9=2,10=2/1;
 7/12=2/1,2,3,16;
 1/18=20,19=15/3(2);
 2/9=110/2;
 99//99;
 2/9=110/2;
 3/5=43,7=101,11=9,25=1,30=1,71=1,75=-5/1,2,3;
 4/5=5,16=3,69=1/1;
 5/5=2,8=3,13=1,38=5/2,8;
 8/6=4,10=1/1;
 9/15=2,16=-3/6;
 10/5=1/2;
 7/12=2/1,2,3,16;
 1/18=20,19=15/3(-8);
 2/9=110/2;
 6/7=2,8=2,9=2,10=2/1;
 99//99;
 ------------------------------------------
 Optimization MeHgCl-apfd-def2svp-gas phase
 ------------------------------------------
 Symbolic Z-matrix:
 Charge =  0 Multiplicity = 1
 C                    -4.87226   1.58796   0.00002 
 Hg                   -3.37421   3.08412   0.00005 
 H                    -4.63754   0.85031   0.7709 
 H                    -4.89474   1.108    -0.98111 
 H                    -5.83831   2.05276   0.2102 
 I                    -1.69759   4.75882  -0.00006 
 

 GradGradGradGradGradGradGradGradGradGradGradGradGradGradGradGradGradGrad
 Berny optimization.
 Initialization pass.
                           ----------------------------
                           !    Initial Parameters    !
                           ! (Angstroms and Degrees)  !
 --------------------------                            --------------------------
 ! Name  Definition              Value          Derivative Info.                !
 --------------------------------------------------------------------------------
 ! R1    R(1,2)                  2.1172         estimate D2E/DX2                !
 ! R2    R(1,3)                  1.0925         estimate D2E/DX2                !
 ! R3    R(1,4)                  1.0925         estimate D2E/DX2                !
 ! R4    R(1,5)                  1.0925         estimate D2E/DX2                !
 ! R5    R(2,6)                  2.3697         estimate D2E/DX2                !
 ! A1    A(2,1,3)              108.9724         estimate D2E/DX2                !
 ! A2    A(2,1,4)              108.9678         estimate D2E/DX2                !
 ! A3    A(2,1,5)              108.9665         estimate D2E/DX2                !
 ! A4    A(3,1,4)              109.9682         estimate D2E/DX2                !
 ! A5    A(3,1,5)              109.9692         estimate D2E/DX2                !
 ! A6    A(4,1,5)              109.9691         estimate D2E/DX2                !
 ! A7    L(1,2,6,5,-1)         179.9977         estimate D2E/DX2                !
 ! A8    L(1,2,6,5,-2)         180.0102         estimate D2E/DX2                !
 ! D1    D(2,1,4,3)            119.3833         estimate D2E/DX2                !
 ! D2    D(2,1,5,3)           -119.383          estimate D2E/DX2                !
 ! D3    D(2,1,5,4)            119.3773         estimate D2E/DX2                !
 ! D4    D(3,1,5,4)           -121.2396         estimate D2E/DX2                !
 --------------------------------------------------------------------------------
 Trust Radius=3.00D-01 FncErr=1.00D-07 GrdErr=1.00D-07 EigMax=2.50D+02 EigMin=1.00D-04
 Number of steps in this run=     27 maximum allowed number of steps=    100.
 GradGradGradGradGradGradGradGradGradGradGradGradGradGradGradGradGradGrad

                          Input orientation:                          
 ---------------------------------------------------------------------
 Center     Atomic      Atomic             Coordinates (Angstroms)
 Number     Number       Type             X           Y           Z
 ---------------------------------------------------------------------
      1          6           0       -4.872260    1.587957    0.000017
      2         80           0       -3.374214    3.084122    0.000049
      3          1           0       -4.637535    0.850314    0.770897
      4          1           0       -4.894741    1.107998   -0.981111
      5          1           0       -5.838309    2.052761    0.210203
      6         53           0       -1.697590    4.758818   -0.000055
 ---------------------------------------------------------------------
                    Distance matrix (angstroms):
                    1          2          3          4          5
     1  C    0.000000
     2  Hg   2.117227   0.000000
     3  H    1.092460   2.679568   0.000000
     4  H    1.092464   2.679504   1.789438   0.000000
     5  H    1.092461   2.679484   1.789445   1.789449   0.000000
     6  I    4.486969   2.369741   4.951166   4.951033   4.951011
                    6
     6  I    0.000000
 This structure is nearly, but not quite of a higher symmetry.
 Consider Symm=Loose if the higher symmetry is desired.
 Stoichiometry    CH3HgI
 Framework group  C1[X(CH3HgI)]
 Deg. of freedom    12
 Full point group                 C1      NOp   1
 Largest Abelian subgroup         C1      NOp   1
 Largest concise Abelian subgroup C1      NOp   1
                         Standard orientation:                         
 ---------------------------------------------------------------------
 Center     Atomic      Atomic             Coordinates (Angstroms)
 Number     Number       Type             X           Y           Z
 ---------------------------------------------------------------------
      1          6           0       -0.367730    0.926523    2.680675
      2         80           0       -0.095457    0.240616    0.696223
      3          1           0        0.540864    0.726637    3.253363
      4          1           0       -1.213487    0.397724    3.126258
      5          1           0       -0.567624    2.000359    2.660910
      6         53           0        0.209116   -0.527040   -1.524951
 ---------------------------------------------------------------------
 Rotational constants (GHZ):         156.6014536           0.8744896           0.8744895
 Standard basis: def2SVP (5D, 7F)
 There are    95 symmetry adapted cartesian basis functions of A   symmetry.
 There are    87 symmetry adapted basis functions of A   symmetry.
    87 basis functions,   178 primitive gaussians,    95 cartesian basis functions
    27 alpha electrons       27 beta electrons
       nuclear repulsion energy       188.8077231519 Hartrees.
 NAtoms=    6 NActive=    6 NUniq=    6 SFac= 1.00D+00 NAtFMM=   60 NAOKFM=F Big=F
 Integral buffers will be    131072 words long.
 Raffenetti 1 integral format.
 Two-electron integral symmetry is turned on.
 One-electron integrals computed using PRISM.
 PrsmSu:  requested number of processors reduced to:  13 ShMem   1 Linda.
   1 Symmetry operations used in ECPInt.
 ECPInt:  NShTT=     703 NPrTT=    2482 LenC2=     701 LenP2D=    2121.
 LDataN:  DoStor=T MaxTD1= 8 Len=  415
 NBasis=    87 RedAO= T EigKep=  8.06D-03  NBF=    87
 NBsUse=    87 1.00D-06 EigRej= -1.00D+00 NBFU=    87
 ExpMin= 5.64D-02 ExpMax= 1.24D+03 ExpMxC= 1.86D+02 IAcc=3 IRadAn=         5 AccDes= 0.00D+00
 Harris functional with IExCor=  205 and IRadAn=       5 diagonalized for initial guess.
 HarFok:  IExCor=  205 AccDes= 0.00D+00 IRadAn=         5 IDoV= 1 UseB2=F ITyADJ=14
 ICtDFT=  3500011 ScaDFX=  1.000000  1.000000  1.000000  1.000000
 Defaulting to unpruned grid for atomic number  80.
 FoFCou: FMM=F IPFlag=           0 FMFlag=      100000 FMFlg1=           0
         NFxFlg=           0 DoJE=T BraDBF=F KetDBF=T FulRan=T
         wScrn=  0.000000 ICntrl=       500 IOpCl=  0 I1Cent=   200000004 NGrid=           0
         NMat0=    1 NMatS0=      1 NMatT0=    0 NMatD0=    1 NMtDS0=    0 NMtDT0=    0
 Petite list used in FoFCou.
 Keep R1 ints in memory in canonical form, NReq=19062839.
 Requested convergence on RMS density matrix=1.00D-08 within  32 cycles.
 Requested convergence on MAX density matrix=1.00D-06.
 Requested convergence on             energy=1.00D-06.
 No special actions if energy rises.
 SCF Done:  E(RHF) =  -488.765747730     A.U. after   13 cycles
            NFock= 13  Conv=0.27D-08     -V/T= 3.3926
 QCSCF skips out because SCF is already converged.
 ExpMin= 5.64D-02 ExpMax= 1.24D+03 ExpMxC= 1.86D+02 IAcc=3 IRadAn=         5 AccDes= 0.00D+00
 HarFok:  IExCor=  205 AccDes= 0.00D+00 IRadAn=         5 IDoV=-2 UseB2=F ITyADJ=14
 ICtDFT= 12500011 ScaDFX=  1.000000  1.000000  1.000000  1.000000
 Defaulting to unpruned grid for atomic number  80.
 Range of M.O.s used for correlation:     6    87
 NBasis=    87 NAE=    27 NBE=    27 NFC=     5 NFV=     0
 NROrb=     82 NOA=    22 NOB=    22 NVA=    60 NVB=    60
 Disk-based method using ON**2 memory for 22 occupieds at a time.
 Estimated scratch disk usage=    36059244 words.
 Actual    scratch disk usage=    33796716 words.
 GetIJB would need an additional   533352462 words of memory to use all  24 processors.
 JobTyp=1 Pass  1:  I=   6 to  27 NPSUse=  3 ParTrn=F ParDer=T DoDerP=T.
 (rs|ai) integrals will be sorted in core.
 Spin components of T(2) and E(2):
     alpha-alpha T2 =       0.3214248281D-01 E2=     -0.1043556113D+00
     alpha-beta  T2 =       0.1435244443D+00 E2=     -0.4413938991D+00
     beta-beta   T2 =       0.3214248281D-01 E2=     -0.1043556113D+00
 ANorm=    0.1099003826D+01
 E2 =    -0.6501051217D+00 EUMP2 =    -0.48941585285154D+03
          IDoAtm=111111
          Differentiating once with respect to electric field.
                with respect to dipole field.
          Differentiating once with respect to nuclear coordinates.
 Keep R1 ints in memory in canonical form, NReq=19065055.
          There are     1 degrees of freedom in the 1st order CPHF.  IDoFFX=0 NUNeed=     1.
 LinEq1:  Iter=  0 NonCon=     1 RMS=6.36D-03 Max=1.36D-01 NDo=     1
 AX will form     1 AO Fock derivatives at one time.
 LinEq1:  Iter=  1 NonCon=     1 RMS=1.48D-03 Max=2.08D-02 NDo=     1
 LinEq1:  Iter=  2 NonCon=     1 RMS=4.93D-04 Max=5.56D-03 NDo=     1
 LinEq1:  Iter=  3 NonCon=     1 RMS=1.46D-04 Max=1.92D-03 NDo=     1
 LinEq1:  Iter=  4 NonCon=     1 RMS=3.19D-05 Max=4.03D-04 NDo=     1
 LinEq1:  Iter=  5 NonCon=     1 RMS=1.05D-05 Max=2.03D-04 NDo=     1
 LinEq1:  Iter=  6 NonCon=     1 RMS=2.87D-06 Max=3.00D-05 NDo=     1
 LinEq1:  Iter=  7 NonCon=     1 RMS=8.98D-07 Max=1.58D-05 NDo=     1
 LinEq1:  Iter=  8 NonCon=     1 RMS=2.29D-07 Max=2.55D-06 NDo=     1
 LinEq1:  Iter=  9 NonCon=     1 RMS=6.94D-08 Max=9.98D-07 NDo=     1
 LinEq1:  Iter= 10 NonCon=     1 RMS=1.40D-08 Max=1.85D-07 NDo=     1
 LinEq1:  Iter= 11 NonCon=     1 RMS=1.93D-09 Max=2.12D-08 NDo=     1
 LinEq1:  Iter= 12 NonCon=     1 RMS=2.45D-10 Max=2.51D-09 NDo=     1
 LinEq1:  Iter= 13 NonCon=     0 RMS=2.85D-11 Max=5.84D-10 NDo=     1
 Linear equations converged to 1.000D-10 1.000D-09 after    13 iterations.
 End of Minotr F.D. properties file   721 does not exist.
 End of Minotr F.D. properties file   722 does not exist.
 End of Minotr F.D. properties file   788 does not exist.

 **********************************************************************

            Population analysis using the SCF density.

 **********************************************************************

 Orbital symmetries:
       Occupied  (A) (A) (A) (A) (A) (A) (A) (A) (A) (A) (A) (A)
                 (A) (A) (A) (A) (A) (A) (A) (A) (A) (A) (A) (A)
                 (A) (A) (A)
       Virtual   (A) (A) (A) (A) (A) (A) (A) (A) (A) (A) (A) (A)
                 (A) (A) (A) (A) (A) (A) (A) (A) (A) (A) (A) (A)
                 (A) (A) (A) (A) (A) (A) (A) (A) (A) (A) (A) (A)
                 (A) (A) (A) (A) (A) (A) (A) (A) (A) (A) (A) (A)
                 (A) (A) (A) (A) (A) (A) (A) (A) (A) (A) (A) (A)
 The electronic state is 1-A.
 Alpha  occ. eigenvalues --  -11.23444  -7.71924  -5.57350  -5.56499  -5.56499
 Alpha  occ. eigenvalues --   -5.12429  -3.11887  -3.11002  -3.11002  -2.26906
 Alpha  occ. eigenvalues --   -2.26484  -2.26484  -2.25662  -2.25662  -0.93467
 Alpha  occ. eigenvalues --   -0.89461  -0.70094  -0.70094  -0.68460  -0.67736
 Alpha  occ. eigenvalues --   -0.67736  -0.55127  -0.55127  -0.46487  -0.37870
 Alpha  occ. eigenvalues --   -0.36438  -0.36438
 Alpha virt. eigenvalues --    0.08692   0.08692   0.10513   0.19202   0.24269
 Alpha virt. eigenvalues --    0.26099   0.26099   0.32202   0.51784   0.52083
 Alpha virt. eigenvalues --    0.52083   0.55768   0.55768   0.58085   0.58881
 Alpha virt. eigenvalues --    0.58881   0.65503   0.67368   0.67368   0.70374
 Alpha virt. eigenvalues --    0.70375   0.84498   0.91153   0.91154   0.91300
 Alpha virt. eigenvalues --    0.91846   0.91846   1.04654   1.04654   1.05671
 Alpha virt. eigenvalues --    1.20118   1.48086   1.52022   1.52023   1.79369
 Alpha virt. eigenvalues --    1.81583   1.81583   1.82052   1.82055   1.82385
 Alpha virt. eigenvalues --    1.83025   1.83025   2.04672   2.04672   2.23302
 Alpha virt. eigenvalues --    2.28892   2.28893   2.52387   2.71372   2.75074
 Alpha virt. eigenvalues --    2.75075   3.07661   3.26513   3.26513  19.20892
 Alpha virt. eigenvalues --   19.20892  19.71816  33.82323  56.74928 121.71766
          Condensed to atoms (all electrons):
               1          2          3          4          5          6
     1  C    5.058243   0.293747   0.377720   0.377714   0.377713  -0.028632
     2  Hg   0.293747  18.963284  -0.033015  -0.033020  -0.033021   0.231950
     3  H    0.377720  -0.033015   0.607259  -0.012075  -0.012074   0.000773
     4  H    0.377714  -0.033020  -0.012075   0.607269  -0.012074   0.000773
     5  H    0.377713  -0.033021  -0.012074  -0.012074   0.607271   0.000773
     6  I   -0.028632   0.231950   0.000773   0.000773   0.000773  25.162171
 Mulliken charges:
               1
     1  C   -0.456505
     2  Hg   0.610076
     3  H    0.071412
     4  H    0.071413
     5  H    0.071412
     6  I   -0.367808
 Sum of Mulliken charges =  -0.00000
 Mulliken charges with hydrogens summed into heavy atoms:
               1
     1  C   -0.242268
     2  Hg   0.610076
     6  I   -0.367808
 Electronic spatial extent (au):  <R**2>=            705.9991
 Charge=             -0.0000 electrons
 Dipole moment (field-independent basis, Debye):
    X=             -0.2769    Y=              0.6979    Z=              2.0192  Tot=              2.1543
 Quadrupole moment (field-independent basis, Debye-Ang):
   XX=            -57.9230   YY=            -58.3795   ZZ=            -62.3739
   XY=              0.2151   XZ=              0.6223   YZ=             -1.5679
 Traceless Quadrupole moment (field-independent basis, Debye-Ang):
   XX=              1.6358   YY=              1.1793   ZZ=             -2.8151
   XY=              0.2151   XZ=              0.6223   YZ=             -1.5679
 Octapole moment (field-independent basis, Debye-Ang**2):
  XXX=             -2.7246  YYY=              7.3333  ZZZ=              3.8599  XYY=             -0.9944
  XXY=              1.9287  XXZ=              7.2485  XZZ=              1.5129  YZZ=             -3.6928
  YYZ=              5.0112  XYZ=              0.8943
 Hexadecapole moment (field-independent basis, Debye-Ang**3):
 XXXX=            -95.2325 YYYY=           -173.8831 ZZZZ=           -913.8064 XXXY=             19.9462
 XXXZ=             55.5322 YYYX=             18.0406 YYYZ=           -138.9354 ZZZX=             59.6692
 ZZZY=           -149.2427 XXYY=            -45.9476 XXZZ=           -161.7846 YYZZ=           -180.9444
 XXYZ=            -47.7150 YYXZ=             18.0925 ZZXY=              8.0821
 N-N= 1.888077231519D+02 E-N=-1.420669879540D+03  KE= 2.042783285515D+02
 PrsmSu:  requested number of processors reduced to:  11 ShMem   1 Linda.
   1 Symmetry operations used in ECPInt.
 ECPInt:  NShTT=     703 NPrTT=    2482 LenC2=     701 LenP2D=    2121.
 LDataN:  DoStor=T MaxTD1= 9 Len=  602
 Calling FoFJK, ICntrl=  10002127 FMM=F ISym2X=0 I1Cent= 0 IOpClX= 0 NMat=1 NMatS=1 NMatT=0.
 ***** Axes restored to original set *****
 -------------------------------------------------------------------
 Center     Atomic                   Forces (Hartrees/Bohr)
 Number     Number              X              Y              Z
 -------------------------------------------------------------------
      1        6           0.010756114    0.010741846   -0.000001997
      2       80          -0.071589917   -0.071506260    0.000002309
      3        1           0.000269519   -0.002561156    0.002245781
      4        1          -0.000481823   -0.001811066   -0.002854972
      5        1          -0.003229132    0.000936589    0.000611708
      6       53           0.064275239    0.064200047   -0.000002830
 -------------------------------------------------------------------
 Cartesian Forces:  Max     0.071589917 RMS     0.032281154

 GradGradGradGradGradGradGradGradGradGradGradGradGradGradGradGradGradGrad
 Berny optimization.
 FormGI is forming the generalized inverse of G from B-inverse, IUseBI=4.
 Internal  Forces:  Max     0.090845762 RMS     0.022221793
 Search for a local minimum.
 Step number   1 out of a maximum of   27
 All quantities printed in internal units (Hartrees-Bohrs-Radians)
 Mixed Optimization -- RFO/linear search
 Second derivative matrix not updated -- first step.
 The second derivative matrix:
                          R1        R2        R3        R4        R5
           R1           0.14592
           R2           0.00000   0.34530
           R3           0.00000   0.00000   0.34529
           R4           0.00000   0.00000   0.00000   0.34530
           R5           0.00000   0.00000   0.00000   0.00000   0.22779
           A1           0.00000   0.00000   0.00000   0.00000   0.00000
           A2           0.00000   0.00000   0.00000   0.00000   0.00000
           A3           0.00000   0.00000   0.00000   0.00000   0.00000
           A4           0.00000   0.00000   0.00000   0.00000   0.00000
           A5           0.00000   0.00000   0.00000   0.00000   0.00000
           A6           0.00000   0.00000   0.00000   0.00000   0.00000
           A7           0.00000   0.00000   0.00000   0.00000   0.00000
           A8           0.00000   0.00000   0.00000   0.00000   0.00000
           D1           0.00000   0.00000   0.00000   0.00000   0.00000
           D2           0.00000   0.00000   0.00000   0.00000   0.00000
           D3           0.00000   0.00000   0.00000   0.00000   0.00000
           D4           0.00000   0.00000   0.00000   0.00000   0.00000
                          A1        A2        A3        A4        A5
           A1           0.16000
           A2           0.00000   0.16000
           A3           0.00000   0.00000   0.16000
           A4           0.00000   0.00000   0.00000   0.16000
           A5           0.00000   0.00000   0.00000   0.00000   0.16000
           A6           0.00000   0.00000   0.00000   0.00000   0.00000
           A7           0.00000   0.00000   0.00000   0.00000   0.00000
           A8           0.00000   0.00000   0.00000   0.00000   0.00000
           D1           0.00000   0.00000   0.00000   0.00000   0.00000
           D2           0.00000   0.00000   0.00000   0.00000   0.00000
           D3           0.00000   0.00000   0.00000   0.00000   0.00000
           D4           0.00000   0.00000   0.00000   0.00000   0.00000
                          A6        A7        A8        D1        D2
           A6           0.16000
           A7           0.00000   0.00230
           A8           0.00000   0.00000   0.00230
           D1           0.00000   0.00000   0.00000   0.00230
           D2           0.00000   0.00000   0.00000   0.00000   0.00230
           D3           0.00000   0.00000   0.00000   0.00000   0.00000
           D4           0.00000   0.00000   0.00000   0.00000   0.00000
                          D3        D4
           D3           0.00230
           D4           0.00000   0.00230
 ITU=  0
     Eigenvalues ---    0.00230   0.00230   0.05051   0.05656   0.08734
     Eigenvalues ---    0.14592   0.16000   0.16000   0.22779   0.34529
     Eigenvalues ---    0.34530   0.34530
 RFO step:  Lambda=-3.24150451D-02 EMin= 2.30000000D-03
 Linear search not attempted -- first point.
 Maximum step size (   0.300) exceeded in Quadratic search.
    -- Step size scaled by   0.847
 Iteration  1 RMS(Cart)=  0.03777322 RMS(Int)=  0.02319321
 Iteration  2 RMS(Cart)=  0.02117443 RMS(Int)=  0.00000286
 Iteration  3 RMS(Cart)=  0.00000002 RMS(Int)=  0.00000286
 Variable       Old X    -DE/DX   Delta X   Delta X   Delta X     New X
                                 (Linear)    (Quad)   (Total)
    R1        4.00098  -0.01034   0.00000  -0.04909  -0.04909   3.95189
    R2        2.06445   0.00337   0.00000   0.00756   0.00756   2.07201
    R3        2.06446   0.00337   0.00000   0.00755   0.00755   2.07201
    R4        2.06445   0.00337   0.00000   0.00756   0.00756   2.07201
    R5        4.47816   0.09085   0.00000   0.29563   0.29563   4.77379
    A1        1.90193   0.00012   0.00000   0.00170   0.00171   1.90363
    A2        1.90185   0.00020   0.00000   0.00193   0.00193   1.90378
    A3        1.90182   0.00039   0.00000   0.00222   0.00222   1.90404
    A4        1.91931  -0.00004   0.00000  -0.00157  -0.00158   1.91773
    A5        1.91932  -0.00030   0.00000  -0.00207  -0.00207   1.91725
    A6        1.91932  -0.00034   0.00000  -0.00210  -0.00210   1.91722
    A7        3.14155   0.00000   0.00000   0.00007   0.00007   3.14162
    A8        3.14177  -0.00000   0.00000  -0.00006  -0.00006   3.14171
    D1        2.08363   0.00024   0.00000   0.00232   0.00231   2.08594
    D2       -2.08363  -0.00020   0.00000  -0.00220  -0.00219  -2.08582
    D3        2.08353   0.00027   0.00000   0.00245   0.00245   2.08598
    D4       -2.11603   0.00047   0.00000   0.00465   0.00464  -2.11139
         Item               Value     Threshold  Converged?
 Maximum Force            0.090846     0.000450     NO 
 RMS     Force            0.022222     0.000300     NO 
 Maximum Displacement     0.153532     0.001800     NO 
 RMS     Displacement     0.058458     0.001200     NO 
 Predicted change in Energy=-1.728612D-02
 GradGradGradGradGradGradGradGradGradGradGradGradGradGradGradGradGradGrad

                          Input orientation:                          
 ---------------------------------------------------------------------
 Center     Atomic      Atomic             Coordinates (Angstroms)
 Number     Number       Type             X           Y           Z
 ---------------------------------------------------------------------
      1          6           0       -4.883413    1.576832   -0.000018
      2         80           0       -3.403763    3.054657    0.000038
      3          1           0       -4.649442    0.835600    0.773324
      4          1           0       -4.907606    1.093941   -0.984121
      5          1           0       -5.854080    2.041143    0.210805
      6         53           0       -1.616344    4.839798   -0.000029
 ---------------------------------------------------------------------
                    Distance matrix (angstroms):
                    1          2          3          4          5
     1  C    0.000000
     2  Hg   2.091251   0.000000
     3  H    1.096460   2.659681   0.000000
     4  H    1.096462   2.659797   1.794993   0.000000
     5  H    1.096461   2.660017   1.794691   1.794674   0.000000
     6  I    4.617432   2.526181   5.082456   5.082547   5.082846
                    6
     6  I    0.000000
 Stoichiometry    CH3HgI
 Framework group  C1[X(CH3HgI)]
 Deg. of freedom    12
 Full point group                 C1      NOp   1
 Largest Abelian subgroup         C1      NOp   1
 Largest concise Abelian subgroup C1      NOp   1
                         Standard orientation:                         
 ---------------------------------------------------------------------
 Center     Atomic      Atomic             Coordinates (Angstroms)
 Number     Number       Type             X           Y           Z
 ---------------------------------------------------------------------
      1          6           0       -2.894005   -0.000065    0.000053
      2         80           0       -0.802754    0.000014   -0.000007
      3          1           0       -3.252267    0.909322    0.496931
      4          1           0       -3.252345   -0.885180    0.538933
      5          1           0       -3.252702   -0.024312   -1.035793
      6         53           0        1.723427   -0.000010    0.000003
 ---------------------------------------------------------------------
 Rotational constants (GHZ):         155.6706429           0.7887151           0.7887142
 Standard basis: def2SVP (5D, 7F)
 There are    95 symmetry adapted cartesian basis functions of A   symmetry.
 There are    87 symmetry adapted basis functions of A   symmetry.
    87 basis functions,   178 primitive gaussians,    95 cartesian basis functions
    27 alpha electrons       27 beta electrons
       nuclear repulsion energy       181.6118628665 Hartrees.
 NAtoms=    6 NActive=    6 NUniq=    6 SFac= 1.00D+00 NAtFMM=   60 NAOKFM=F Big=F
 Integral buffers will be    131072 words long.
 Raffenetti 1 integral format.
 Two-electron integral symmetry is turned on.
 One-electron integrals computed using PRISM.
 PrsmSu:  requested number of processors reduced to:  13 ShMem   1 Linda.
   1 Symmetry operations used in ECPInt.
 ECPInt:  NShTT=     703 NPrTT=    2482 LenC2=     701 LenP2D=    2104.
 LDataN:  DoStor=T MaxTD1= 8 Len=  415
 NBasis=    87 RedAO= T EigKep=  8.60D-03  NBF=    87
 NBsUse=    87 1.00D-06 EigRej= -1.00D+00 NBFU=    87
 Initial guess from the checkpoint file:  "ch3hgcl_gas_mp2.chk"
 B after Tr=     0.000000    0.000000    0.000000
         Rot=    0.638361    0.395938    0.416530   -0.512085 Ang= 100.66 deg.
 ExpMin= 5.64D-02 ExpMax= 1.24D+03 ExpMxC= 1.86D+02 IAcc=2 IRadAn=         4 AccDes= 0.00D+00
 Harris functional with IExCor=  205 and IRadAn=       4 diagonalized for initial guess.
 HarFok:  IExCor=  205 AccDes= 0.00D+00 IRadAn=         4 IDoV= 1 UseB2=F ITyADJ=14
 ICtDFT=  3500011 ScaDFX=  1.000000  1.000000  1.000000  1.000000
 Defaulting to unpruned grid for atomic number  80.
 FoFCou: FMM=F IPFlag=           0 FMFlag=      100000 FMFlg1=           0
         NFxFlg=           0 DoJE=T BraDBF=F KetDBF=T FulRan=T
         wScrn=  0.000000 ICntrl=       500 IOpCl=  0 I1Cent=   200000004 NGrid=           0
         NMat0=    1 NMatS0=      1 NMatT0=    0 NMatD0=    1 NMtDS0=    0 NMtDT0=    0
 Petite list used in FoFCou.
 Keep R1 ints in memory in canonical form, NReq=19061721.
 Requested convergence on RMS density matrix=1.00D-08 within  32 cycles.
 Requested convergence on MAX density matrix=1.00D-06.
 Requested convergence on             energy=1.00D-06.
 No special actions if energy rises.
 SCF Done:  E(RHF) =  -488.784804787     A.U. after   12 cycles
            NFock= 12  Conv=0.76D-08     -V/T= 3.3944
 QCSCF skips out because SCF is already converged.
 ExpMin= 5.64D-02 ExpMax= 1.24D+03 ExpMxC= 1.86D+02 IAcc=3 IRadAn=         5 AccDes= 0.00D+00
 HarFok:  IExCor=  205 AccDes= 0.00D+00 IRadAn=         5 IDoV=-2 UseB2=F ITyADJ=14
 ICtDFT= 12500011 ScaDFX=  1.000000  1.000000  1.000000  1.000000
 Defaulting to unpruned grid for atomic number  80.
 Range of M.O.s used for correlation:     6    87
 NBasis=    87 NAE=    27 NBE=    27 NFC=     5 NFV=     0
 NROrb=     82 NOA=    22 NOB=    22 NVA=    60 NVB=    60
 Disk-based method using ON**2 memory for 22 occupieds at a time.
 Estimated scratch disk usage=    36059244 words.
 Actual    scratch disk usage=    33796716 words.
 GetIJB would need an additional   533350740 words of memory to use all  24 processors.
 JobTyp=1 Pass  1:  I=   6 to  27 NPSUse=  3 ParTrn=F ParDer=T DoDerP=T.
 (rs|ai) integrals will be sorted in core.
 Spin components of T(2) and E(2):
     alpha-alpha T2 =       0.3194923138D-01 E2=     -0.1034886571D+00
     alpha-beta  T2 =       0.1442080196D+00 E2=     -0.4405880982D+00
     beta-beta   T2 =       0.3194923138D-01 E2=     -0.1034886571D+00
 ANorm=    0.1099138973D+01
 E2 =    -0.6475654125D+00 EUMP2 =    -0.48943237019904D+03
          IDoAtm=111111
          Differentiating once with respect to electric field.
                with respect to dipole field.
          Differentiating once with respect to nuclear coordinates.
 Keep R1 ints in memory in canonical form, NReq=19064600.
          There are     1 degrees of freedom in the 1st order CPHF.  IDoFFX=0 NUNeed=     1.
 LinEq1:  Iter=  0 NonCon=     1 RMS=6.54D-03 Max=1.55D-01 NDo=     1
 AX will form     1 AO Fock derivatives at one time.
 LinEq1:  Iter=  1 NonCon=     1 RMS=1.48D-03 Max=1.94D-02 NDo=     1
 LinEq1:  Iter=  2 NonCon=     1 RMS=4.90D-04 Max=6.02D-03 NDo=     1
 LinEq1:  Iter=  3 NonCon=     1 RMS=1.44D-04 Max=2.05D-03 NDo=     1
 LinEq1:  Iter=  4 NonCon=     1 RMS=3.44D-05 Max=4.24D-04 NDo=     1
 LinEq1:  Iter=  5 NonCon=     1 RMS=1.05D-05 Max=2.02D-04 NDo=     1
 LinEq1:  Iter=  6 NonCon=     1 RMS=2.84D-06 Max=2.98D-05 NDo=     1
 LinEq1:  Iter=  7 NonCon=     1 RMS=8.90D-07 Max=1.78D-05 NDo=     1
 LinEq1:  Iter=  8 NonCon=     1 RMS=2.38D-07 Max=2.90D-06 NDo=     1
 LinEq1:  Iter=  9 NonCon=     1 RMS=6.90D-08 Max=8.90D-07 NDo=     1
 LinEq1:  Iter= 10 NonCon=     1 RMS=1.46D-08 Max=1.88D-07 NDo=     1
 LinEq1:  Iter= 11 NonCon=     1 RMS=2.26D-09 Max=2.60D-08 NDo=     1
 LinEq1:  Iter= 12 NonCon=     1 RMS=2.80D-10 Max=2.45D-09 NDo=     1
 LinEq1:  Iter= 13 NonCon=     0 RMS=3.05D-11 Max=5.76D-10 NDo=     1
 Linear equations converged to 1.000D-10 1.000D-09 after    13 iterations.
 End of Minotr F.D. properties file   721 does not exist.
 End of Minotr F.D. properties file   722 does not exist.
 End of Minotr F.D. properties file   788 does not exist.
 PrsmSu:  requested number of processors reduced to:  11 ShMem   1 Linda.
   1 Symmetry operations used in ECPInt.
 ECPInt:  NShTT=     703 NPrTT=    2482 LenC2=     701 LenP2D=    2104.
 LDataN:  DoStor=T MaxTD1= 9 Len=  602
 Calling FoFJK, ICntrl=  10002127 FMM=F ISym2X=0 I1Cent= 0 IOpClX= 0 NMat=1 NMatS=1 NMatT=0.
 ***** Axes restored to original set *****
 -------------------------------------------------------------------
 Center     Atomic                   Forces (Hartrees/Bohr)
 Number     Number              X              Y              Z
 -------------------------------------------------------------------
      1        6           0.004510514    0.004531340    0.000008073
      2       80          -0.021225918   -0.021181542   -0.000004119
      3        1           0.000106861   -0.000425126    0.000383504
      4        1          -0.000015327   -0.000290078   -0.000502328
      5        1          -0.000517790    0.000247312    0.000114184
      6       53           0.017141659    0.017118095    0.000000686
 -------------------------------------------------------------------
 Cartesian Forces:  Max     0.021225918 RMS     0.009213393

 GradGradGradGradGradGradGradGradGradGradGradGradGradGradGradGradGradGrad
 Berny optimization.
 Using GEDIIS/GDIIS optimizer.
 FormGI is forming the generalized inverse of G from B-inverse, IUseBI=4.
 Internal  Forces:  Max     0.024225310 RMS     0.006044327
 Search for a local minimum.
 Step number   2 out of a maximum of   27
 All quantities printed in internal units (Hartrees-Bohrs-Radians)
 Mixed Optimization -- RFO/linear search
 Update second derivatives using D2CorX and points    1    2
 DE= -1.65D-02 DEPred=-1.73D-02 R= 9.56D-01
 TightC=F SS=  1.41D+00  RLast= 3.00D-01 DXNew= 5.0454D-01 9.0019D-01
 Trust test= 9.56D-01 RLast= 3.00D-01 DXMaxT set to 5.05D-01
 The second derivative matrix:
                          R1        R2        R3        R4        R5
           R1           0.14444
           R2           0.00028   0.34535
           R3           0.00028   0.00005   0.34535
           R4           0.00028   0.00005   0.00005   0.34535
           R5           0.00848   0.00065   0.00066   0.00064   0.22668
           A1           0.00007  -0.00002  -0.00002  -0.00002  -0.00056
           A2           0.00007  -0.00001  -0.00001  -0.00001  -0.00041
           A3           0.00003   0.00001   0.00001   0.00001   0.00016
           A4          -0.00009   0.00003   0.00003   0.00003   0.00080
           A5          -0.00005  -0.00000  -0.00000  -0.00000   0.00007
           A6          -0.00004  -0.00001  -0.00001  -0.00001  -0.00007
           A7           0.00000  -0.00000  -0.00000  -0.00000  -0.00001
           A8          -0.00000   0.00000   0.00000   0.00000   0.00000
           D1          -0.00005   0.00003   0.00003   0.00003   0.00076
           D2           0.00004  -0.00003  -0.00003  -0.00003  -0.00061
           D3          -0.00006   0.00004   0.00004   0.00004   0.00084
           D4          -0.00010   0.00006   0.00006   0.00006   0.00144
                          A1        A2        A3        A4        A5
           A1           0.16000
           A2          -0.00000   0.16000
           A3          -0.00000  -0.00000   0.16000
           A4           0.00000   0.00000   0.00000   0.16000
           A5           0.00000   0.00000  -0.00000  -0.00000   0.16000
           A6           0.00000   0.00000  -0.00000  -0.00000   0.00000
           A7          -0.00000  -0.00000  -0.00000   0.00000   0.00000
           A8           0.00000   0.00000   0.00000  -0.00000  -0.00000
           D1           0.00000   0.00000   0.00000  -0.00000  -0.00000
           D2          -0.00000  -0.00000  -0.00000   0.00000   0.00000
           D3           0.00000   0.00000   0.00001  -0.00000  -0.00000
           D4           0.00000   0.00000   0.00001  -0.00000  -0.00001
                          A6        A7        A8        D1        D2
           A6           0.16000
           A7           0.00000   0.00230
           A8          -0.00000  -0.00000   0.00230
           D1          -0.00000  -0.00000   0.00000   0.00230
           D2           0.00000   0.00000  -0.00000  -0.00000   0.00230
           D3          -0.00000  -0.00000   0.00000   0.00000  -0.00000
           D4          -0.00001  -0.00000   0.00000   0.00001  -0.00000
                          D3        D4
           D3           0.00230
           D4           0.00001   0.00231
 ITU=  1  0
 Use linear search instead of GDIIS.
     Eigenvalues ---    0.00230   0.00230   0.05060   0.05668   0.08711
     Eigenvalues ---    0.14358   0.16000   0.16000   0.22754   0.34530
     Eigenvalues ---    0.34530   0.34547
 RFO step:  Lambda=-2.29970993D-04 EMin= 2.29999996D-03
 Quartic linear search produced a step of  0.63147.
 Iteration  1 RMS(Cart)=  0.03240079 RMS(Int)=  0.00002142
 Iteration  2 RMS(Cart)=  0.00004365 RMS(Int)=  0.00000255
 Iteration  3 RMS(Cart)=  0.00000000 RMS(Int)=  0.00000255
 Variable       Old X    -DE/DX   Delta X   Delta X   Delta X     New X
                                 (Linear)    (Quad)   (Total)
    R1        3.95189  -0.00576  -0.03100  -0.03915  -0.07015   3.88174
    R2        2.07201   0.00058   0.00477  -0.00213   0.00265   2.07465
    R3        2.07201   0.00058   0.00477  -0.00213   0.00264   2.07465
    R4        2.07201   0.00059   0.00477  -0.00211   0.00267   2.07468
    R5        4.77379   0.02423   0.18668  -0.00242   0.18426   4.95805
    A1        1.90363   0.00002   0.00108   0.00045   0.00153   1.90516
    A2        1.90378   0.00001   0.00122  -0.00004   0.00118   1.90495
    A3        1.90404  -0.00002   0.00140  -0.00080   0.00060   1.90465
    A4        1.91773  -0.00003  -0.00100  -0.00084  -0.00185   1.91588
    A5        1.91725   0.00001  -0.00131   0.00057  -0.00075   1.91650
    A6        1.91722   0.00001  -0.00133   0.00066  -0.00067   1.91655
    A7        3.14162   0.00000   0.00004   0.00371   0.00375   3.14538
    A8        3.14171  -0.00000  -0.00004  -0.00254  -0.00258   3.13914
    D1        2.08594   0.00001   0.00146   0.00001   0.00147   2.08742
    D2       -2.08582  -0.00002  -0.00139  -0.00040  -0.00179  -2.08761
    D3        2.08598   0.00001   0.00155  -0.00014   0.00140   2.08738
    D4       -2.11139   0.00003   0.00293   0.00026   0.00319  -2.10820
         Item               Value     Threshold  Converged?
 Maximum Force            0.024225     0.000450     NO 
 RMS     Force            0.006044     0.000300     NO 
 Maximum Displacement     0.079499     0.001800     NO 
 RMS     Displacement     0.032402     0.001200     NO 
 Predicted change in Energy=-7.727630D-04
 GradGradGradGradGradGradGradGradGradGradGradGradGradGradGradGradGradGrad

                          Input orientation:                          
 ---------------------------------------------------------------------
 Center     Atomic      Atomic             Coordinates (Angstroms)
 Number     Number       Type             X           Y           Z
 ---------------------------------------------------------------------
      1          6           0       -4.885696    1.574767    0.000031
      2         80           0       -3.434754    3.028801   -0.000150
      3          1           0       -4.651312    0.832001    0.773762
      4          1           0       -4.909938    1.090169   -0.984788
      5          1           0       -5.858673    2.037470    0.211081
      6         53           0       -1.574275    4.878762    0.000065
 ---------------------------------------------------------------------
                    Distance matrix (angstroms):
                    1          2          3          4          5
     1  C    0.000000
     2  Hg   2.054129   0.000000
     3  H    1.097860   2.627715   0.000000
     4  H    1.097857   2.627541   1.796116   0.000000
     5  H    1.097872   2.627307   1.796520   1.796547   0.000000
     6  I    4.677808   2.623688   5.142279   5.142958   5.145244
                    6
     6  I    0.000000
 Stoichiometry    CH3HgI
 Framework group  C1[X(CH3HgI)]
 Deg. of freedom    12
 Full point group                 C1      NOp   1
 Largest Abelian subgroup         C1      NOp   1
 Largest concise Abelian subgroup C1      NOp   1
                         Standard orientation:                         
 ---------------------------------------------------------------------
 Center     Atomic      Atomic             Coordinates (Angstroms)
 Number     Number       Type             X           Y           Z
 ---------------------------------------------------------------------
      1          6           0       -2.895585    0.005235   -0.001041
      2         80           0       -0.841466   -0.001139    0.000224
      3          1           0       -3.253578    0.571878   -0.870554
      4          1           0       -3.254757    0.476782    0.923042
      5          1           0       -3.258520   -1.029445   -0.056167
      6         53           0        1.782220    0.000765   -0.000150
 ---------------------------------------------------------------------
 Rotational constants (GHZ):         155.3550234           0.7432315           0.7432296
 Standard basis: def2SVP (5D, 7F)
 There are    95 symmetry adapted cartesian basis functions of A   symmetry.
 There are    87 symmetry adapted basis functions of A   symmetry.
    87 basis functions,   178 primitive gaussians,    95 cartesian basis functions
    27 alpha electrons       27 beta electrons
       nuclear repulsion energy       178.0887346494 Hartrees.
 NAtoms=    6 NActive=    6 NUniq=    6 SFac= 1.00D+00 NAtFMM=   60 NAOKFM=F Big=F
 Integral buffers will be    131072 words long.
 Raffenetti 1 integral format.
 Two-electron integral symmetry is turned on.
 One-electron integrals computed using PRISM.
 PrsmSu:  requested number of processors reduced to:  13 ShMem   1 Linda.
   1 Symmetry operations used in ECPInt.
 ECPInt:  NShTT=     703 NPrTT=    2482 LenC2=     701 LenP2D=    2100.
 LDataN:  DoStor=T MaxTD1= 8 Len=  415
 NBasis=    87 RedAO= T EigKep=  8.76D-03  NBF=    87
 NBsUse=    87 1.00D-06 EigRej= -1.00D+00 NBFU=    87
 Initial guess from the checkpoint file:  "ch3hgcl_gas_mp2.chk"
 B after Tr=     0.000000   -0.000000    0.000000
         Rot=    1.000000    0.000000   -0.000000    0.000000 Ang=   0.00 deg.
 ExpMin= 5.64D-02 ExpMax= 1.24D+03 ExpMxC= 1.86D+02 IAcc=2 IRadAn=         4 AccDes= 0.00D+00
 Harris functional with IExCor=  205 and IRadAn=       4 diagonalized for initial guess.
 HarFok:  IExCor=  205 AccDes= 0.00D+00 IRadAn=         4 IDoV= 1 UseB2=F ITyADJ=14
 ICtDFT=  3500011 ScaDFX=  1.000000  1.000000  1.000000  1.000000
 Defaulting to unpruned grid for atomic number  80.
 FoFCou: FMM=F IPFlag=           0 FMFlag=      100000 FMFlg1=           0
         NFxFlg=           0 DoJE=T BraDBF=F KetDBF=T FulRan=T
         wScrn=  0.000000 ICntrl=       500 IOpCl=  0 I1Cent=   200000004 NGrid=           0
         NMat0=    1 NMatS0=      1 NMatT0=    0 NMatD0=    1 NMtDS0=    0 NMtDT0=    0
 Petite list used in FoFCou.
 Keep R1 ints in memory in canonical form, NReq=19061500.
 Requested convergence on RMS density matrix=1.00D-08 within  32 cycles.
 Requested convergence on MAX density matrix=1.00D-06.
 Requested convergence on             energy=1.00D-06.
 No special actions if energy rises.
 SCF Done:  E(RHF) =  -488.787559301     A.U. after    1 cycles
            NFock=  1  Conv=0.71D-09     -V/T= 3.3948
 QCSCF skips out because SCF is already converged.
 ExpMin= 5.64D-02 ExpMax= 1.24D+03 ExpMxC= 1.86D+02 IAcc=3 IRadAn=         5 AccDes= 0.00D+00
 HarFok:  IExCor=  205 AccDes= 0.00D+00 IRadAn=         5 IDoV=-2 UseB2=F ITyADJ=14
 ICtDFT= 12500011 ScaDFX=  1.000000  1.000000  1.000000  1.000000
 Defaulting to unpruned grid for atomic number  80.
 Range of M.O.s used for correlation:     6    87
 NBasis=    87 NAE=    27 NBE=    27 NFC=     5 NFV=     0
 NROrb=     82 NOA=    22 NOB=    22 NVA=    60 NVB=    60
 Disk-based method using ON**2 memory for 22 occupieds at a time.
 Estimated scratch disk usage=    36059244 words.
 Actual    scratch disk usage=    33796716 words.
 GetIJB would need an additional   533349954 words of memory to use all  24 processors.
 JobTyp=1 Pass  1:  I=   6 to  27 NPSUse=  3 ParTrn=F ParDer=T DoDerP=T.
 (rs|ai) integrals will be sorted in core.
 Spin components of T(2) and E(2):
     alpha-alpha T2 =       0.3186014947D-01 E2=     -0.1031931731D+00
     alpha-beta  T2 =       0.1444859588D+00 E2=     -0.4404593279D+00
     beta-beta   T2 =       0.3186014947D-01 E2=     -0.1031931731D+00
 ANorm=    0.1099184360D+01
 E2 =    -0.6468456742D+00 EUMP2 =    -0.48943440497477D+03
          IDoAtm=111111
          Differentiating once with respect to electric field.
                with respect to dipole field.
          Differentiating once with respect to nuclear coordinates.
 Keep R1 ints in memory in canonical form, NReq=19064470.
          There are     1 degrees of freedom in the 1st order CPHF.  IDoFFX=0 NUNeed=     1.
 LinEq1:  Iter=  0 NonCon=     1 RMS=6.62D-03 Max=1.63D-01 NDo=     1
 AX will form     1 AO Fock derivatives at one time.
 LinEq1:  Iter=  1 NonCon=     1 RMS=1.47D-03 Max=2.08D-02 NDo=     1
 LinEq1:  Iter=  2 NonCon=     1 RMS=4.86D-04 Max=6.18D-03 NDo=     1
 LinEq1:  Iter=  3 NonCon=     1 RMS=1.40D-04 Max=2.02D-03 NDo=     1
 LinEq1:  Iter=  4 NonCon=     1 RMS=3.53D-05 Max=4.12D-04 NDo=     1
 LinEq1:  Iter=  5 NonCon=     1 RMS=9.83D-06 Max=1.82D-04 NDo=     1
 LinEq1:  Iter=  6 NonCon=     1 RMS=2.83D-06 Max=3.01D-05 NDo=     1
 LinEq1:  Iter=  7 NonCon=     1 RMS=8.76D-07 Max=1.79D-05 NDo=     1
 LinEq1:  Iter=  8 NonCon=     1 RMS=2.36D-07 Max=3.35D-06 NDo=     1
 LinEq1:  Iter=  9 NonCon=     1 RMS=6.68D-08 Max=7.76D-07 NDo=     1
 LinEq1:  Iter= 10 NonCon=     1 RMS=1.43D-08 Max=1.80D-07 NDo=     1
 LinEq1:  Iter= 11 NonCon=     1 RMS=2.37D-09 Max=2.79D-08 NDo=     1
 LinEq1:  Iter= 12 NonCon=     1 RMS=2.96D-10 Max=2.78D-09 NDo=     1
 LinEq1:  Iter= 13 NonCon=     0 RMS=4.91D-11 Max=7.06D-10 NDo=     1
 Linear equations converged to 1.000D-10 1.000D-09 after    13 iterations.
 End of Minotr F.D. properties file   721 does not exist.
 End of Minotr F.D. properties file   722 does not exist.
 End of Minotr F.D. properties file   788 does not exist.
 PrsmSu:  requested number of processors reduced to:  11 ShMem   1 Linda.
   1 Symmetry operations used in ECPInt.
 ECPInt:  NShTT=     703 NPrTT=    2482 LenC2=     701 LenP2D=    2100.
 LDataN:  DoStor=T MaxTD1= 9 Len=  602
 Calling FoFJK, ICntrl=  10002127 FMM=F ISym2X=0 I1Cent= 0 IOpClX= 0 NMat=1 NMatS=1 NMatT=0.
 ***** Axes restored to original set *****
 -------------------------------------------------------------------
 Center     Atomic                   Forces (Hartrees/Bohr)
 Number     Number              X              Y              Z
 -------------------------------------------------------------------
      1        6          -0.003120267   -0.002952948   -0.000012220
      2       80           0.004178993    0.003868041    0.000012035
      3        1          -0.000199266    0.000152813   -0.000225042
      4        1          -0.000144985    0.000058596    0.000310251
      5        1           0.000169594   -0.000358465   -0.000081217
      6       53          -0.000884068   -0.000768036   -0.000003807
 -------------------------------------------------------------------
 Cartesian Forces:  Max     0.004178993 RMS     0.001710291

 GradGradGradGradGradGradGradGradGradGradGradGradGradGradGradGradGradGrad
 Berny optimization.
 Using GEDIIS/GDIIS optimizer.
 FormGI is forming the generalized inverse of G from B-inverse, IUseBI=4.
 Internal  Forces:  Max     0.004521765 RMS     0.001147408
 Search for a local minimum.
 Step number   3 out of a maximum of   27
 All quantities printed in internal units (Hartrees-Bohrs-Radians)
 Mixed Optimization -- RFO/linear search
 Update second derivatives using D2CorX and points    1    2    3
 DE= -2.03D-03 DEPred=-7.73D-04 R= 2.63D+00
 TightC=F SS=  1.41D+00  RLast= 1.97D-01 DXNew= 8.4853D-01 5.9200D-01
 Trust test= 2.63D+00 RLast= 1.97D-01 DXMaxT set to 5.92D-01
 The second derivative matrix:
                          R1        R2        R3        R4        R5
           R1           0.15355
           R2          -0.00039   0.34539
           R3          -0.00039   0.00009   0.34538
           R4          -0.00042   0.00009   0.00009   0.34539
           R5           0.00266  -0.00031  -0.00032  -0.00026   0.13886
           A1           0.00018  -0.00004  -0.00004  -0.00004  -0.00117
           A2           0.00023  -0.00004  -0.00004  -0.00004  -0.00112
           A3           0.00055  -0.00005  -0.00005  -0.00005  -0.00164
           A4          -0.00011   0.00004   0.00004   0.00004   0.00117
           A5          -0.00038   0.00004   0.00004   0.00004   0.00130
           A6          -0.00045   0.00004   0.00004   0.00004   0.00141
           A7          -0.00065   0.00007   0.00007   0.00007   0.00178
           A8           0.00007  -0.00001  -0.00001  -0.00001  -0.00017
           D1           0.00016   0.00000   0.00000   0.00000  -0.00020
           D2          -0.00014  -0.00000  -0.00000  -0.00000   0.00019
           D3           0.00023  -0.00000  -0.00000  -0.00000  -0.00037
           D4           0.00037  -0.00000  -0.00000  -0.00000  -0.00056
                          A1        A2        A3        A4        A5
           A1           0.16000
           A2          -0.00000   0.16000
           A3          -0.00001  -0.00000   0.16001
           A4           0.00001   0.00001   0.00001   0.16000
           A5           0.00000   0.00000  -0.00000  -0.00001   0.16000
           A6           0.00000   0.00000  -0.00001  -0.00001   0.00000
           A7           0.00000  -0.00000  -0.00002  -0.00000   0.00001
           A8           0.00000   0.00000   0.00000   0.00000  -0.00000
           D1          -0.00000   0.00000   0.00000   0.00000  -0.00000
           D2           0.00000  -0.00000  -0.00000  -0.00000   0.00000
           D3          -0.00000   0.00000   0.00001   0.00000  -0.00000
           D4          -0.00000   0.00000   0.00001   0.00000  -0.00001
                          A6        A7        A8        D1        D2
           A6           0.16000
           A7           0.00001   0.00233
           A8          -0.00000  -0.00000   0.00230
           D1          -0.00000  -0.00000   0.00000   0.00230
           D2           0.00000   0.00000  -0.00000  -0.00000   0.00230
           D3          -0.00000  -0.00001   0.00000   0.00000  -0.00000
           D4          -0.00001  -0.00001   0.00000   0.00000  -0.00000
                          D3        D4
           D3           0.00230
           D4           0.00000   0.00230
 ITU=  1  1  0
 Use linear search instead of GDIIS.
     Eigenvalues ---    0.00230   0.00230   0.05062   0.05669   0.08703
     Eigenvalues ---    0.13838   0.15399   0.16000   0.16015   0.34530
     Eigenvalues ---    0.34530   0.34557
 RFO step:  Lambda=-1.41972737D-04 EMin= 2.29988272D-03
 Quartic linear search produced a step of -0.11367.
 Iteration  1 RMS(Cart)=  0.07908510 RMS(Int)=  0.00446710
 Iteration  2 RMS(Cart)=  0.00556544 RMS(Int)=  0.00000336
 Iteration  3 RMS(Cart)=  0.00000570 RMS(Int)=  0.00000063
 Iteration  4 RMS(Cart)=  0.00000000 RMS(Int)=  0.00000063
 Variable       Old X    -DE/DX   Delta X   Delta X   Delta X     New X
                                 (Linear)    (Quad)   (Total)
    R1        3.88174   0.00452   0.00797   0.02192   0.02990   3.91164
    R2        2.07465  -0.00030  -0.00030  -0.00054  -0.00084   2.07381
    R3        2.07465  -0.00030  -0.00030  -0.00053  -0.00083   2.07382
    R4        2.07468  -0.00032  -0.00030  -0.00057  -0.00087   2.07380
    R5        4.95805  -0.00117  -0.02095   0.01113  -0.00981   4.94824
    A1        1.90516   0.00000  -0.00017   0.00062   0.00044   1.90561
    A2        1.90495   0.00005  -0.00013   0.00093   0.00079   1.90574
    A3        1.90465   0.00023  -0.00007   0.00164   0.00157   1.90622
    A4        1.91588   0.00004   0.00021  -0.00072  -0.00051   1.91537
    A5        1.91650  -0.00014   0.00008  -0.00119  -0.00110   1.91540
    A6        1.91655  -0.00017   0.00008  -0.00123  -0.00116   1.91539
    A7        3.14538  -0.00038  -0.00043  -0.14085  -0.14128   3.00409
    A8        3.13914   0.00004   0.00029   0.01598   0.01627   3.15541
    D1        2.08742   0.00005  -0.00017   0.00088   0.00072   2.08813
    D2       -2.08761  -0.00006   0.00020  -0.00104  -0.00083  -2.08844
    D3        2.08738   0.00009  -0.00016   0.00139   0.00123   2.08861
    D4       -2.10820   0.00015  -0.00036   0.00243   0.00207  -2.10613
         Item               Value     Threshold  Converged?
 Maximum Force            0.004522     0.000450     NO 
 RMS     Force            0.001147     0.000300     NO 
 Maximum Displacement     0.185389     0.001800     NO 
 RMS     Displacement     0.079886     0.001200     NO 
 Predicted change in Energy=-9.828399D-05
 GradGradGradGradGradGradGradGradGradGradGradGradGradGradGradGradGradGrad

                          Input orientation:                          
 ---------------------------------------------------------------------
 Center     Atomic      Atomic             Coordinates (Angstroms)
 Number     Number       Type             X           Y           Z
 ---------------------------------------------------------------------
      1          6           0       -4.883934    1.570513   -0.000649
      2         80           0       -3.336651    2.945382   -0.019270
      3          1           0       -4.689945    0.819813    0.775970
      4          1           0       -4.944331    1.082078   -0.981520
      5          1           0       -5.826462    2.090280    0.213337
      6         53           0       -1.633327    4.933904    0.012132
 ---------------------------------------------------------------------
                    Distance matrix (angstroms):
                    1          2          3          4          5
     1  C    0.000000
     2  Hg   2.069951   0.000000
     3  H    1.097415   2.642321   0.000000
     4  H    1.097417   2.642434   1.795067   0.000000
     5  H    1.097409   2.642814   1.795081   1.795079   0.000000
     6  I    4.677500   2.618495   5.181902   5.175582   5.070410
                    6
     6  I    0.000000
 Stoichiometry    CH3HgI
 Framework group  C1[X(CH3HgI)]
 Deg. of freedom    12
 Full point group                 C1      NOp   1
 Largest Abelian subgroup         C1      NOp   1
 Largest concise Abelian subgroup C1      NOp   1
                         Standard orientation:                         
 ---------------------------------------------------------------------
 Center     Atomic      Atomic             Coordinates (Angstroms)
 Number     Number       Type             X           Y           Z
 ---------------------------------------------------------------------
      1          6           0       -2.896141   -0.189209    0.000002
      2         80           0       -0.839034    0.041023    0.000001
      3          1           0       -3.317248    0.331309   -0.869509
      4          1           0       -3.307050    0.238900    0.923149
      5          1           0       -3.140027   -1.257827   -0.053693
      6         53           0        1.778564   -0.027527   -0.000000
 ---------------------------------------------------------------------
 Rotational constants (GHZ):         120.0070436           0.7458731           0.7448137
 Standard basis: def2SVP (5D, 7F)
 There are    95 symmetry adapted cartesian basis functions of A   symmetry.
 There are    87 symmetry adapted basis functions of A   symmetry.
    87 basis functions,   178 primitive gaussians,    95 cartesian basis functions
    27 alpha electrons       27 beta electrons
       nuclear repulsion energy       177.9911882468 Hartrees.
 NAtoms=    6 NActive=    6 NUniq=    6 SFac= 1.00D+00 NAtFMM=   60 NAOKFM=F Big=F
 Integral buffers will be    131072 words long.
 Raffenetti 1 integral format.
 Two-electron integral symmetry is turned on.
 One-electron integrals computed using PRISM.
 PrsmSu:  requested number of processors reduced to:  13 ShMem   1 Linda.
   1 Symmetry operations used in ECPInt.
 ECPInt:  NShTT=     703 NPrTT=    2482 LenC2=     699 LenP2D=    2098.
 LDataN:  DoStor=T MaxTD1= 8 Len=  415
 NBasis=    87 RedAO= T EigKep=  8.83D-03  NBF=    87
 NBsUse=    87 1.00D-06 EigRej= -1.00D+00 NBFU=    87
 Initial guess from the checkpoint file:  "ch3hgcl_gas_mp2.chk"
 B after Tr=     0.000000    0.000000   -0.000000
         Rot=    0.999999    0.001049   -0.000002   -0.000572 Ang=   0.14 deg.
 ExpMin= 5.64D-02 ExpMax= 1.24D+03 ExpMxC= 1.86D+02 IAcc=2 IRadAn=         4 AccDes= 0.00D+00
 Harris functional with IExCor=  205 and IRadAn=       4 diagonalized for initial guess.
 HarFok:  IExCor=  205 AccDes= 0.00D+00 IRadAn=         4 IDoV= 1 UseB2=F ITyADJ=14
 ICtDFT=  3500011 ScaDFX=  1.000000  1.000000  1.000000  1.000000
 Defaulting to unpruned grid for atomic number  80.
 FoFCou: FMM=F IPFlag=           0 FMFlag=      100000 FMFlg1=           0
         NFxFlg=           0 DoJE=T BraDBF=F KetDBF=T FulRan=T
         wScrn=  0.000000 ICntrl=       500 IOpCl=  0 I1Cent=   200000004 NGrid=           0
         NMat0=    1 NMatS0=      1 NMatT0=    0 NMatD0=    1 NMtDS0=    0 NMtDT0=    0
 Petite list used in FoFCou.
 Keep R1 ints in memory in canonical form, NReq=19061409.
 Requested convergence on RMS density matrix=1.00D-08 within  32 cycles.
 Requested convergence on MAX density matrix=1.00D-06.
 Requested convergence on             energy=1.00D-06.
 No special actions if energy rises.
 SCF Done:  E(RHF) =  -488.787199556     A.U. after   11 cycles
            NFock= 11  Conv=0.82D-08     -V/T= 3.3949
 QCSCF skips out because SCF is already converged.
 ExpMin= 5.64D-02 ExpMax= 1.24D+03 ExpMxC= 1.86D+02 IAcc=3 IRadAn=         5 AccDes= 0.00D+00
 HarFok:  IExCor=  205 AccDes= 0.00D+00 IRadAn=         5 IDoV=-2 UseB2=F ITyADJ=14
 ICtDFT= 12500011 ScaDFX=  1.000000  1.000000  1.000000  1.000000
 Defaulting to unpruned grid for atomic number  80.
 Range of M.O.s used for correlation:     6    87
 NBasis=    87 NAE=    27 NBE=    27 NFC=     5 NFV=     0
 NROrb=     82 NOA=    22 NOB=    22 NVA=    60 NVB=    60
 Disk-based method using ON**2 memory for 22 occupieds at a time.
 Estimated scratch disk usage=    36059244 words.
 Actual    scratch disk usage=    33796716 words.
 GetIJB would need an additional   533349372 words of memory to use all  24 processors.
 JobTyp=1 Pass  1:  I=   6 to  27 NPSUse=  3 ParTrn=F ParDer=T DoDerP=T.
 (rs|ai) integrals will be sorted in core.
 Spin components of T(2) and E(2):
     alpha-alpha T2 =       0.3184429118D-01 E2=     -0.1030748758D+00
     alpha-beta  T2 =       0.1445719217D+00 E2=     -0.4402032550D+00
     beta-beta   T2 =       0.3184429118D-01 E2=     -0.1030748758D+00
 ANorm=    0.1099209036D+01
 E2 =    -0.6463530066D+00 EUMP2 =    -0.48943355256248D+03
          IDoAtm=111111
          Differentiating once with respect to electric field.
                with respect to dipole field.
          Differentiating once with respect to nuclear coordinates.
 Keep R1 ints in memory in canonical form, NReq=19064470.
          There are     1 degrees of freedom in the 1st order CPHF.  IDoFFX=0 NUNeed=     1.
 LinEq1:  Iter=  0 NonCon=     1 RMS=6.65D-03 Max=1.21D-01 NDo=     1
 AX will form     1 AO Fock derivatives at one time.
 LinEq1:  Iter=  1 NonCon=     1 RMS=1.48D-03 Max=1.54D-02 NDo=     1
 LinEq1:  Iter=  2 NonCon=     1 RMS=4.88D-04 Max=5.66D-03 NDo=     1
 LinEq1:  Iter=  3 NonCon=     1 RMS=1.41D-04 Max=1.84D-03 NDo=     1
 LinEq1:  Iter=  4 NonCon=     1 RMS=3.56D-05 Max=4.24D-04 NDo=     1
 LinEq1:  Iter=  5 NonCon=     1 RMS=9.98D-06 Max=1.35D-04 NDo=     1
 LinEq1:  Iter=  6 NonCon=     1 RMS=2.88D-06 Max=3.02D-05 NDo=     1
 LinEq1:  Iter=  7 NonCon=     1 RMS=9.06D-07 Max=1.29D-05 NDo=     1
 LinEq1:  Iter=  8 NonCon=     1 RMS=2.46D-07 Max=2.46D-06 NDo=     1
 LinEq1:  Iter=  9 NonCon=     1 RMS=7.01D-08 Max=8.09D-07 NDo=     1
 LinEq1:  Iter= 10 NonCon=     1 RMS=1.59D-08 Max=1.84D-07 NDo=     1
 LinEq1:  Iter= 11 NonCon=     1 RMS=3.54D-09 Max=3.33D-08 NDo=     1
 LinEq1:  Iter= 12 NonCon=     1 RMS=1.24D-09 Max=1.75D-08 NDo=     1
 LinEq1:  Iter= 13 NonCon=     1 RMS=2.44D-10 Max=2.26D-09 NDo=     1
 LinEq1:  Iter= 14 NonCon=     0 RMS=3.59D-11 Max=4.04D-10 NDo=     1
 Linear equations converged to 1.000D-10 1.000D-09 after    14 iterations.
 End of Minotr F.D. properties file   721 does not exist.
 End of Minotr F.D. properties file   722 does not exist.
 End of Minotr F.D. properties file   788 does not exist.
 PrsmSu:  requested number of processors reduced to:  11 ShMem   1 Linda.
   1 Symmetry operations used in ECPInt.
 ECPInt:  NShTT=     703 NPrTT=    2482 LenC2=     699 LenP2D=    2098.
 LDataN:  DoStor=T MaxTD1= 9 Len=  602
 Calling FoFJK, ICntrl=  10002127 FMM=F ISym2X=0 I1Cent= 0 IOpClX= 0 NMat=1 NMatS=1 NMatT=0.
 ***** Axes restored to original set *****
 -------------------------------------------------------------------
 Center     Atomic                   Forces (Hartrees/Bohr)
 Number     Number              X              Y              Z
 -------------------------------------------------------------------
      1        6           0.002739329   -0.003948918   -0.000727227
      2       80          -0.005210816    0.004717672    0.001081101
      3        1          -0.000331160   -0.000268825   -0.000187475
      4        1          -0.000174384   -0.000257520    0.000153665
      5        1           0.000863612    0.001370876    0.000086809
      6       53           0.002113419   -0.001613285   -0.000406875
 -------------------------------------------------------------------
 Cartesian Forces:  Max     0.005210816 RMS     0.002165505

 GradGradGradGradGradGradGradGradGradGradGradGradGradGradGradGradGradGrad
 Berny optimization.
 Using GEDIIS/GDIIS optimizer.
 FormGI is forming the generalized inverse of G from B-inverse, IUseBI=4.
 Internal  Forces:  Max     0.013279895 RMS     0.003304322
 Search for a local minimum.
 Step number   4 out of a maximum of   27
 All quantities printed in internal units (Hartrees-Bohrs-Radians)
 Mixed Optimization -- RFO/linear search
 Update second derivatives using D2CorX and points    1    2    4    3
 DE=  8.52D-04 DEPred=-9.83D-05 R=-8.67D+00
 Trust test=-8.67D+00 RLast= 1.46D-01 DXMaxT set to 2.96D-01
 The second derivative matrix:
                          R1        R2        R3        R4        R5
           R1           0.06057
           R2           0.00586   0.34496
           R3           0.00581  -0.00034   0.34496
           R4           0.00625  -0.00036  -0.00036   0.34491
           R5           0.03475  -0.00221  -0.00220  -0.00230   0.12960
           A1          -0.00325   0.00019   0.00018   0.00017  -0.00014
           A2          -0.00476   0.00029   0.00028   0.00028   0.00041
           A3           0.00015   0.00001   0.00002   0.00010  -0.00115
           A4           0.00321  -0.00017  -0.00017  -0.00017   0.00020
           A5           0.00213  -0.00014  -0.00014  -0.00017   0.00035
           A6           0.00243  -0.00016  -0.00016  -0.00020   0.00033
           A7          -0.02363   0.00146   0.00140   0.00106   0.00766
           A8          -0.00016   0.00001   0.00001   0.00002  -0.00006
           D1          -0.00217   0.00016   0.00016   0.00014   0.00049
           D2          -0.00063   0.00002   0.00002   0.00001   0.00028
           D3           0.00033   0.00001   0.00001   0.00001  -0.00033
           D4           0.00095  -0.00001  -0.00001   0.00000  -0.00061
                          A1        A2        A3        A4        A5
           A1           0.16015
           A2           0.00017   0.16017
           A3          -0.00093  -0.00115   0.16288
           A4          -0.00011  -0.00011   0.00077   0.16007
           A5           0.00036   0.00046  -0.00082  -0.00031   0.16017
           A6           0.00035   0.00045  -0.00074  -0.00031   0.00014
           A7           0.00433   0.00522  -0.01655  -0.00344   0.00535
           A8          -0.00011  -0.00014   0.00033   0.00009  -0.00009
           D1           0.00028   0.00034  -0.00119  -0.00022   0.00040
           D2           0.00009   0.00011  -0.00035  -0.00008   0.00011
           D3          -0.00006  -0.00007   0.00019   0.00005  -0.00006
           D4          -0.00015  -0.00018   0.00054   0.00013  -0.00017
                          A6        A7        A8        D1        D2
           A6           0.16011
           A7           0.00502   0.09065
           A8          -0.00008  -0.00194   0.00234
           D1           0.00038   0.00618  -0.00014   0.00273
           D2           0.00011   0.00185  -0.00004   0.00013   0.00234
           D3          -0.00005  -0.00106   0.00002  -0.00008  -0.00002
           D4          -0.00016  -0.00292   0.00006  -0.00020  -0.00006
                          D3        D4
           D3           0.00231
           D4           0.00004   0.00240
 ITU= -1  1  1  0
 Use linear search instead of GDIIS.
     Eigenvalues ---    0.00228   0.03380   0.05062   0.05705   0.08207
     Eigenvalues ---    0.10300   0.14420   0.16000   0.16857   0.34465
     Eigenvalues ---    0.34530   0.34530
 RFO step:  Lambda=-5.22951058D-04 EMin= 2.28215130D-03
 Quartic linear search produced a step of -0.90498.
 Iteration  1 RMS(Cart)=  0.09871145 RMS(Int)=  0.00665782
 Iteration  2 RMS(Cart)=  0.00796476 RMS(Int)=  0.00003440
 Iteration  3 RMS(Cart)=  0.00002948 RMS(Int)=  0.00000350
 Iteration  4 RMS(Cart)=  0.00000000 RMS(Int)=  0.00000350
 Variable       Old X    -DE/DX   Delta X   Delta X   Delta X     New X
                                 (Linear)    (Quad)   (Total)
    R1        3.91164  -0.00026  -0.02706   0.10727   0.08021   3.99185
    R2        2.07381  -0.00001   0.00076  -0.00307  -0.00231   2.07150
    R3        2.07382  -0.00001   0.00075  -0.00304  -0.00229   2.07153
    R4        2.07380  -0.00008   0.00079  -0.00321  -0.00241   2.07139
    R5        4.94824   0.00014   0.00888  -0.03926  -0.03038   4.91786
    A1        1.90561   0.00064  -0.00040   0.00225   0.00185   1.90745
    A2        1.90574   0.00081  -0.00072   0.00335   0.00263   1.90837
    A3        1.90622  -0.00239  -0.00142   0.00380   0.00238   1.90860
    A4        1.91537  -0.00046   0.00047  -0.00175  -0.00130   1.91407
    A5        1.91540   0.00073   0.00100  -0.00368  -0.00269   1.91271
    A6        1.91539   0.00066   0.00105  -0.00386  -0.00282   1.91257
    A7        3.00409   0.01328   0.12786   0.04318   0.17103   3.17513
    A8        3.15541  -0.00027  -0.01473   0.03626   0.02153   3.17694
    D1        2.08813   0.00100  -0.00065   0.00373   0.00308   2.09121
    D2       -2.08844   0.00023   0.00076  -0.00284  -0.00208  -2.09053
    D3        2.08861  -0.00007  -0.00111   0.00408   0.00296   2.09157
    D4       -2.10613  -0.00030  -0.00187   0.00692   0.00504  -2.10109
         Item               Value     Threshold  Converged?
 Maximum Force            0.013280     0.000450     NO 
 RMS     Force            0.003304     0.000300     NO 
 Maximum Displacement     0.248342     0.001800     NO 
 RMS     Displacement     0.099436     0.001200     NO 
 Predicted change in Energy=-2.684726D-04
 GradGradGradGradGradGradGradGradGradGradGradGradGradGradGradGradGradGrad

                          Input orientation:                          
 ---------------------------------------------------------------------
 Center     Atomic      Atomic             Coordinates (Angstroms)
 Number     Number       Type             X           Y           Z
 ---------------------------------------------------------------------
      1          6           0       -4.896465    1.565267    0.000444
      2         80           0       -3.420934    3.076799    0.017613
      3          1           0       -4.660574    0.820210    0.769133
      4          1           0       -4.913585    1.085785   -0.985190
      5          1           0       -5.875796    2.011221    0.209108
      6         53           0       -1.547296    4.882688   -0.011109
 ---------------------------------------------------------------------
                    Distance matrix (angstroms):
                    1          2          3          4          5
     1  C    0.000000
     2  Hg   2.112395   0.000000
     3  H    1.096193   2.682105   0.000000
     4  H    1.096207   2.682864   1.792259   0.000000
     5  H    1.096131   2.682997   1.791341   1.791265   0.000000
     6  I    4.714058   2.602418   5.177355   5.166934   5.199012
                    6
     6  I    0.000000
 Stoichiometry    CH3HgI
 Framework group  C1[X(CH3HgI)]
 Deg. of freedom    12
 Full point group                 C1      NOp   1
 Largest Abelian subgroup         C1      NOp   1
 Largest concise Abelian subgroup C1      NOp   1
                         Standard orientation:                         
 ---------------------------------------------------------------------
 Center     Atomic      Atomic             Coordinates (Angstroms)
 Number     Number       Type             X           Y           Z
 ---------------------------------------------------------------------
      1          6           0       -2.941324    0.050017   -0.000988
      2         80           0       -0.829810   -0.010981    0.000219
      3          1           0       -3.298299    0.212689   -1.024583
      4          1           0       -3.281236    0.869486    0.642907
      5          1           0       -3.332448   -0.901314    0.377820
      6         53           0        1.772542    0.007500   -0.000146
 ---------------------------------------------------------------------
 Rotational constants (GHZ):         152.9931571           0.7478181           0.7477446
 Standard basis: def2SVP (5D, 7F)
 There are    95 symmetry adapted cartesian basis functions of A   symmetry.
 There are    87 symmetry adapted basis functions of A   symmetry.
    87 basis functions,   178 primitive gaussians,    95 cartesian basis functions
    27 alpha electrons       27 beta electrons
       nuclear repulsion energy       177.6411422128 Hartrees.
 NAtoms=    6 NActive=    6 NUniq=    6 SFac= 1.00D+00 NAtFMM=   60 NAOKFM=F Big=F
 Integral buffers will be    131072 words long.
 Raffenetti 1 integral format.
 Two-electron integral symmetry is turned on.
 One-electron integrals computed using PRISM.
 PrsmSu:  requested number of processors reduced to:  13 ShMem   1 Linda.
   1 Symmetry operations used in ECPInt.
 ECPInt:  NShTT=     703 NPrTT=    2482 LenC2=     698 LenP2D=    2096.
 LDataN:  DoStor=T MaxTD1= 8 Len=  415
 NBasis=    87 RedAO= T EigKep=  8.89D-03  NBF=    87
 NBsUse=    87 1.00D-06 EigRej= -1.00D+00 NBFU=    87
 Lowest energy guess from the checkpoint file:  "ch3hgcl_gas_mp2.chk"
 B after Tr=     0.000000   -0.000000    0.000000
         Rot=    0.977228    0.212192   -0.000023    0.000072 Ang=  24.50 deg.
 B after Tr=     0.000000   -0.000000    0.000000
         Rot=    0.996423    0.084507   -0.000008    0.000047 Ang=   9.70 deg.
 Keep R1 ints in memory in canonical form, NReq=19061331.
 Requested convergence on RMS density matrix=1.00D-08 within  32 cycles.
 Requested convergence on MAX density matrix=1.00D-06.
 Requested convergence on             energy=1.00D-06.
 No special actions if energy rises.
 SCF Done:  E(RHF) =  -488.788527382     A.U. after   11 cycles
            NFock= 11  Conv=0.31D-08     -V/T= 3.3951
 QCSCF skips out because SCF is already converged.
 ExpMin= 5.64D-02 ExpMax= 1.24D+03 ExpMxC= 1.86D+02 IAcc=3 IRadAn=         5 AccDes= 0.00D+00
 HarFok:  IExCor=  205 AccDes= 0.00D+00 IRadAn=         5 IDoV=-2 UseB2=F ITyADJ=14
 ICtDFT= 12500011 ScaDFX=  1.000000  1.000000  1.000000  1.000000
 Defaulting to unpruned grid for atomic number  80.
 Range of M.O.s used for correlation:     6    87
 NBasis=    87 NAE=    27 NBE=    27 NFC=     5 NFV=     0
 NROrb=     82 NOA=    22 NOB=    22 NVA=    60 NVB=    60
 Disk-based method using ON**2 memory for 22 occupieds at a time.
 Estimated scratch disk usage=    36059244 words.
 Actual    scratch disk usage=    33796716 words.
 GetIJB would need an additional   533349144 words of memory to use all  24 processors.
 JobTyp=1 Pass  1:  I=   6 to  27 NPSUse=  3 ParTrn=F ParDer=T DoDerP=T.
 (rs|ai) integrals will be sorted in core.
 Spin components of T(2) and E(2):
     alpha-alpha T2 =       0.3180453633D-01 E2=     -0.1028209159D+00
     alpha-beta  T2 =       0.1446872591D+00 E2=     -0.4396433466D+00
     beta-beta   T2 =       0.3180453633D-01 E2=     -0.1028209159D+00
 ANorm=    0.1099225333D+01
 E2 =    -0.6452851785D+00 EUMP2 =    -0.48943381256617D+03
          IDoAtm=111111
          Differentiating once with respect to electric field.
                with respect to dipole field.
          Differentiating once with respect to nuclear coordinates.
 Keep R1 ints in memory in canonical form, NReq=19064379.
          There are     1 degrees of freedom in the 1st order CPHF.  IDoFFX=0 NUNeed=     1.
 LinEq1:  Iter=  0 NonCon=     1 RMS=6.69D-03 Max=1.39D-01 NDo=     1
 AX will form     1 AO Fock derivatives at one time.
 LinEq1:  Iter=  1 NonCon=     1 RMS=1.49D-03 Max=1.77D-02 NDo=     1
 LinEq1:  Iter=  2 NonCon=     1 RMS=4.90D-04 Max=5.65D-03 NDo=     1
 LinEq1:  Iter=  3 NonCon=     1 RMS=1.43D-04 Max=2.06D-03 NDo=     1
 LinEq1:  Iter=  4 NonCon=     1 RMS=3.58D-05 Max=4.42D-04 NDo=     1
 LinEq1:  Iter=  5 NonCon=     1 RMS=1.04D-05 Max=1.59D-04 NDo=     1
 LinEq1:  Iter=  6 NonCon=     1 RMS=2.79D-06 Max=3.28D-05 NDo=     1
 LinEq1:  Iter=  7 NonCon=     1 RMS=8.45D-07 Max=1.43D-05 NDo=     1
 LinEq1:  Iter=  8 NonCon=     1 RMS=2.33D-07 Max=2.77D-06 NDo=     1
 LinEq1:  Iter=  9 NonCon=     1 RMS=6.88D-08 Max=8.04D-07 NDo=     1
 LinEq1:  Iter= 10 NonCon=     1 RMS=1.49D-08 Max=1.43D-07 NDo=     1
 LinEq1:  Iter= 11 NonCon=     1 RMS=2.54D-09 Max=2.87D-08 NDo=     1
 LinEq1:  Iter= 12 NonCon=     1 RMS=5.23D-10 Max=7.99D-09 NDo=     1
 LinEq1:  Iter= 13 NonCon=     1 RMS=1.85D-10 Max=1.52D-09 NDo=     1
 LinEq1:  Iter= 14 NonCon=     0 RMS=2.79D-11 Max=5.14D-10 NDo=     1
 Linear equations converged to 1.000D-10 1.000D-09 after    14 iterations.
 End of Minotr F.D. properties file   721 does not exist.
 End of Minotr F.D. properties file   722 does not exist.
 End of Minotr F.D. properties file   788 does not exist.
 PrsmSu:  requested number of processors reduced to:  11 ShMem   1 Linda.
   1 Symmetry operations used in ECPInt.
 ECPInt:  NShTT=     703 NPrTT=    2482 LenC2=     698 LenP2D=    2096.
 LDataN:  DoStor=T MaxTD1= 9 Len=  602
 Calling FoFJK, ICntrl=  10002127 FMM=F ISym2X=0 I1Cent= 0 IOpClX= 0 NMat=1 NMatS=1 NMatT=0.
 ***** Axes restored to original set *****
 -------------------------------------------------------------------
 Center     Atomic                   Forces (Hartrees/Bohr)
 Number     Number              X              Y              Z
 -------------------------------------------------------------------
      1        6           0.005860875    0.007508412    0.000746234
      2       80          -0.009908942   -0.012171774   -0.001056287
      3        1           0.001279754    0.000171400    0.000840723
      4        1           0.001204585    0.000609870   -0.001128043
      5        1          -0.000266603    0.001300128    0.000256487
      6       53           0.001830330    0.002581964    0.000340887
 -------------------------------------------------------------------
 Cartesian Forces:  Max     0.012171774 RMS     0.004448267

 GradGradGradGradGradGradGradGradGradGradGradGradGradGradGradGradGradGrad
 Berny optimization.
 Using GEDIIS/GDIIS optimizer.
 FormGI is forming the generalized inverse of G from B-inverse, IUseBI=4.
 Internal  Forces:  Max     0.012507670 RMS     0.003280001
 Search for a local minimum.
 Step number   5 out of a maximum of   27
 All quantities printed in internal units (Hartrees-Bohrs-Radians)
 Mixed Optimization -- RFO/linear search
 Update second derivatives using D2CorX and points    1    2    4    5    3
 DE=  5.92D-04 DEPred=-2.68D-04 R=-2.21D+00
 Trust test=-2.21D+00 RLast= 1.27D-01 DXMaxT set to 1.48D-01
 The second derivative matrix:
                          R1        R2        R3        R4        R5
           R1           0.14967
           R2          -0.00010   0.34526
           R3          -0.00001  -0.00004   0.34524
           R4          -0.00015  -0.00003  -0.00004   0.34527
           R5          -0.00763  -0.00165  -0.00170  -0.00151   0.07881
           A1          -0.00204   0.00009   0.00009   0.00007  -0.00146
           A2           0.00025  -0.00007  -0.00007  -0.00011  -0.00269
           A3           0.00355  -0.00022  -0.00020  -0.00014  -0.00267
           A4           0.00328  -0.00013  -0.00013  -0.00012   0.00179
           A5          -0.00142   0.00010   0.00009   0.00008   0.00211
           A6          -0.00366   0.00023   0.00022   0.00023   0.00283
           A7          -0.00164  -0.00011  -0.00014  -0.00060  -0.00528
           A8           0.00358  -0.00023  -0.00022  -0.00023  -0.00119
           D1           0.00500  -0.00030  -0.00030  -0.00036  -0.00241
           D2          -0.00353   0.00018   0.00017   0.00018   0.00063
           D3           0.00681  -0.00037  -0.00036  -0.00039  -0.00167
           D4           0.01034  -0.00055  -0.00053  -0.00057  -0.00230
                          A1        A2        A3        A4        A5
           A1           0.16016
           A2           0.00024   0.16044
           A3          -0.00089  -0.00097   0.16305
           A4          -0.00009  -0.00011   0.00080   0.16005
           A5           0.00032   0.00027  -0.00097  -0.00033   0.16032
           A6           0.00026   0.00013  -0.00100  -0.00031   0.00040
           A7           0.00477   0.00638  -0.01596  -0.00362   0.00457
           A8          -0.00004   0.00005   0.00048   0.00008  -0.00025
           D1           0.00042   0.00070  -0.00094  -0.00026   0.00012
           D2           0.00004  -0.00004  -0.00048  -0.00006   0.00024
[...]
     4   1     0.56   0.06  -0.12     0.69   0.08  -0.16     0.38   0.03  -0.09
     5   1    -0.24  -0.42  -0.31    -0.01   0.02   0.01     0.33   0.58   0.46
     6  53    -0.00  -0.00   0.00    -0.00   0.00   0.00    -0.00  -0.00  -0.00

 -------------------
 - Thermochemistry -
 -------------------
 Temperature   298.150 Kelvin.  Pressure   1.00000 Atm.
 Atom     1 has atomic number  6 and mass  12.00000
 Atom     2 has atomic number 80 and mass 201.97060
 Atom     3 has atomic number  1 and mass   1.00783
 Atom     4 has atomic number  1 and mass   1.00783
 Atom     5 has atomic number  1 and mass   1.00783
 Atom     6 has atomic number 53 and mass 126.90040
 Molecular mass:   343.89448 amu.
 Principal axes and moments of inertia in atomic units:
                           1         2         3
     Eigenvalues --    11.610602424.004242424.00425
           X           -0.07578  -0.03426   0.99654
           Y           -0.25950   0.96565   0.01347
           Z            0.96277   0.25758   0.08206
 This molecule is an asymmetric top.
 Rotational symmetry number  1.
 Rotational temperatures (Kelvin)      7.45990     0.03573     0.03573
 Rotational constants (GHZ):         155.43914     0.74453     0.74453
 Zero-point vibrational energy      98063.8 (Joules/Mol)
                                   23.43781 (Kcal/Mol)
 Warning -- explicit consideration of   4 degrees of freedom as
           vibrations may cause significant error
 Vibrational temperatures:    160.08   160.09   282.93   801.80  1174.40
          (Kelvin)           1174.41  1788.43  2102.91  2102.91  4483.25
                             4678.74  4678.78
 
 Zero-point correction=                           0.037351 (Hartree/Particle)
 Thermal correction to Energy=                    0.042534
 Thermal correction to Enthalpy=                  0.043478
 Thermal correction to Gibbs Free Energy=         0.006055
 Sum of electronic and zero-point Energies=           -489.397123
 Sum of electronic and thermal Energies=              -489.391939
 Sum of electronic and thermal Enthalpies=            -489.390995
 Sum of electronic and thermal Free Energies=         -489.428419
 
                     E (Thermal)             CV                S
                      KCal/Mol        Cal/Mol-Kelvin    Cal/Mol-Kelvin
 Total                   26.690             14.409             78.764
 Electronic               0.000              0.000              0.000
 Translational            0.889              2.981             43.400
 Rotational               0.889              2.981             25.726
 Vibrational             24.913              8.447              9.638
 Vibration     1          0.607              1.940              3.247
 Vibration     2          0.607              1.940              3.247
 Vibration     3          0.636              1.845              2.164
 Vibration     4          0.913              1.124              0.529
                       Q            Log10(Q)             Ln(Q)
 Total Bot       0.164026D-02         -2.785088         -6.412902
 Total V=0       0.248282D+15         14.394945         33.145585
 Vib (Bot)       0.699864D-16        -16.154986        -37.198230
 Vib (Bot)    1  0.184029D+01          0.264885          0.609921
 Vib (Bot)    2  0.184023D+01          0.264873          0.609892
 Vib (Bot)    3  0.101527D+01          0.006581          0.015154
 Vib (Bot)    4  0.279634D+00         -0.553411         -1.274275
 Vib (V=0)       0.105937D+02          1.025047          2.360258
 Vib (V=0)    1  0.240700D+01          0.381476          0.878381
 Vib (V=0)    2  0.240695D+01          0.381467          0.878360
 Vib (V=0)    3  0.163171D+01          0.212644          0.489630
 Vib (V=0)    4  0.107288D+01          0.030552          0.070349
 Electronic      0.100000D+01          0.000000          0.000000
 Translational   0.250664D+09          8.399092         19.339623
 Rotational      0.934988D+05          4.970806         11.445704
 ***** Axes restored to original set *****
 -------------------------------------------------------------------
 Center     Atomic                   Forces (Hartrees/Bohr)
 Number     Number              X              Y              Z
 -------------------------------------------------------------------
      1        6          -0.000030788   -0.000035994    0.000003736
      2       80           0.000042684    0.000043818   -0.000007037
      3        1           0.000008943    0.000011100   -0.000001168
      4        1           0.000011071    0.000011816    0.000001262
      5        1           0.000010867    0.000011824    0.000000397
      6       53          -0.000042779   -0.000042564    0.000002810
 -------------------------------------------------------------------
 Cartesian Forces:  Max     0.000043818 RMS     0.000024066
 FormGI is forming the generalized inverse of G from B-inverse, IUseBI=4.

 GradGradGradGradGradGradGradGradGradGradGradGradGradGradGradGradGradGrad
 Berny optimization.
 Internal  Forces:  Max     0.000060347 RMS     0.000016032
 Search for a local minimum.
 Step number   1 out of a maximum of    2
 All quantities printed in internal units (Hartrees-Bohrs-Radians)
 Second derivative matrix not updated -- analytic derivatives used.
 The second derivative matrix:
                          R1        R2        R3        R4        R5
           R1           0.16457
           R2           0.00165   0.36364
           R3           0.00165  -0.00094   0.36364
           R4           0.00165  -0.00094  -0.00094   0.36365
           R5           0.00492   0.00035   0.00035   0.00035   0.11773
           A1           0.00266  -0.00059  -0.00041  -0.00142   0.00068
           A2           0.00418   0.00003  -0.00020  -0.00363   0.00107
           A3           0.00819  -0.00321  -0.00318  -0.00106   0.00209
           A4          -0.00098   0.00346   0.00344  -0.00601  -0.00025
           A5          -0.00650   0.00630  -0.00581   0.00542  -0.00166
           A6          -0.00732  -0.00606   0.00610   0.00661  -0.00187
           A7          -0.00000   0.00015   0.00015  -0.00030  -0.00000
           A8          -0.00000  -0.00010   0.00010   0.00000  -0.00000
           D1           0.00521   0.00139   0.00145  -0.00757   0.00133
           D2          -0.00434  -0.00112   0.00594  -0.00088  -0.00111
           D3           0.00570  -0.00557   0.00149  -0.00110   0.00146
           D4           0.01003  -0.00445  -0.00445  -0.00022   0.00256
                          A1        A2        A3        A4        A5
           A1           0.01666
           A2          -0.00754   0.03129
           A3          -0.01080  -0.01835   0.06111
           A4          -0.00777  -0.00131   0.02275   0.03682
           A5          -0.01207   0.02201  -0.03082  -0.02229   0.06941
           A6           0.02150  -0.02601  -0.02343  -0.02801  -0.02653
           A7           0.00475   0.00708  -0.01595  -0.00348   0.00440
           A8          -0.00271   0.00357  -0.00044   0.00029   0.00167
           D1           0.01107   0.00911  -0.01070   0.01188  -0.01473
           D2          -0.00648   0.00717  -0.00558   0.00901  -0.00822
           D3          -0.00287   0.01135   0.00080  -0.00457  -0.00792
           D4           0.00362   0.00418   0.00638  -0.01359   0.00030
                          A6        A7        A8        D1        D2
           A6           0.08208
           A7           0.00314   0.09720
           A8          -0.00238  -0.00001   0.01500
           D1          -0.00649   0.00803  -0.00095   0.02624
           D2           0.00403   0.00129   0.00257   0.00189   0.01628
           D3           0.00334   0.00080   0.00266   0.00068   0.00778
           D4          -0.00069  -0.00049   0.00009  -0.00121  -0.00850
                          D3        D4
           D3           0.01637
           D4           0.00859   0.01709
 ITU=  0
     Eigenvalues ---    0.01370   0.03237   0.03709   0.05474   0.09213
     Eigenvalues ---    0.11716   0.12342   0.12617   0.16929   0.36213
     Eigenvalues ---    0.36525   0.36532
 Angle between quadratic step and forces=  35.02 degrees.
 Linear search not attempted -- first point.
 Iteration  1 RMS(Cart)=  0.00017212 RMS(Int)=  0.00000002
 Iteration  2 RMS(Cart)=  0.00000002 RMS(Int)=  0.00000001
 Variable       Old X    -DE/DX   Delta X   Delta X   Delta X     New X
                                 (Linear)    (Quad)   (Total)
    R1        3.90912   0.00000   0.00000   0.00008   0.00008   3.90920
    R2        2.07365  -0.00001   0.00000  -0.00003  -0.00003   2.07362
    R3        2.07365  -0.00001   0.00000  -0.00003  -0.00003   2.07362
    R4        2.07364  -0.00000   0.00000  -0.00002  -0.00002   2.07362
    R5        4.94751  -0.00006   0.00000  -0.00049  -0.00049   4.94702
    A1        1.90394  -0.00000   0.00000  -0.00012  -0.00012   1.90382
    A2        1.90393  -0.00001   0.00000  -0.00011  -0.00011   1.90382
    A3        1.90398  -0.00001   0.00000  -0.00016  -0.00016   1.90382
    A4        1.91727   0.00000   0.00000   0.00013   0.00013   1.91740
    A5        1.91727   0.00001   0.00000   0.00013   0.00013   1.91740
    A6        1.91727   0.00001   0.00000   0.00013   0.00013   1.91740
    A7        3.14164  -0.00000   0.00000  -0.00004  -0.00004   3.14159
    A8        3.14195  -0.00001   0.00000  -0.00036  -0.00036   3.14159
    D1        2.08613  -0.00000   0.00000  -0.00014  -0.00014   2.08600
    D2       -2.08617   0.00000   0.00000   0.00017   0.00017  -2.08600
    D3        2.08616  -0.00001   0.00000  -0.00016  -0.00016   2.08600
    D4       -2.11086  -0.00001   0.00000  -0.00033  -0.00033  -2.11120
         Item               Value     Threshold  Converged?
 Maximum Force            0.000060     0.000450     YES
 RMS     Force            0.000016     0.000300     YES
 Maximum Displacement     0.000373     0.001800     YES
 RMS     Displacement     0.000172     0.001200     YES
 Predicted change in Energy=-2.216257D-08
 Optimization completed.
    -- Stationary point found.
                           ----------------------------
                           !   Optimized Parameters   !
                           ! (Angstroms and Degrees)  !
 --------------------------                            --------------------------
 ! Name  Definition              Value          Derivative Info.                !
 --------------------------------------------------------------------------------
 ! R1    R(1,2)                  2.0686         -DE/DX =    0.0                 !
 ! R2    R(1,3)                  1.0973         -DE/DX =    0.0                 !
 ! R3    R(1,4)                  1.0973         -DE/DX =    0.0                 !
 ! R4    R(1,5)                  1.0973         -DE/DX =    0.0                 !
 ! R5    R(2,6)                  2.6181         -DE/DX =   -0.0001              !
 ! A1    A(2,1,3)              109.0875         -DE/DX =    0.0                 !
 ! A2    A(2,1,4)              109.0871         -DE/DX =    0.0                 !
 ! A3    A(2,1,5)              109.09           -DE/DX =    0.0                 !
 ! A4    A(3,1,4)              109.8513         -DE/DX =    0.0                 !
 ! A5    A(3,1,5)              109.8517         -DE/DX =    0.0                 !
 ! A6    A(4,1,5)              109.8515         -DE/DX =    0.0                 !
 ! A7    L(1,2,6,5,-1)         180.0025         -DE/DX =    0.0                 !
 ! A8    L(1,2,6,5,-2)         180.0204         -DE/DX =    0.0                 !
 ! D1    D(2,1,4,3)            119.5265         -DE/DX =    0.0                 !
 ! D2    D(2,1,5,3)           -119.5285         -DE/DX =    0.0                 !
 ! D3    D(2,1,5,4)            119.5279         -DE/DX =    0.0                 !
 ! D4    D(3,1,5,4)           -120.9436         -DE/DX =    0.0                 !
 --------------------------------------------------------------------------------
 GradGradGradGradGradGradGradGradGradGradGradGradGradGradGradGradGradGrad


 ----------------------------------------------------------------------

 Electric dipole moment (input orientation):
 (Debye = 10**-18 statcoulomb cm , SI units = C m)
                  (au)            (Debye)         (10**-30 SI)
   Tot        0.132300D+01      0.336273D+01      0.112169D+02
   x         -0.936268D+00     -0.237976D+01     -0.793801D+01
   y         -0.934738D+00     -0.237587D+01     -0.792504D+01
   z          0.147135D-03      0.373980D-03      0.124746D-02

 Dipole polarizability, Alpha (input orientation).
 (esu units = cm**3 , SI units = C**2 m**2 J**-1)
 Alpha(0;0):
               (au)            (10**-24 esu)      (10**-40 SI)
   iso        0.702902D+02      0.104159D+02      0.115893D+02
   aniso      0.761358D+02      0.112822D+02      0.125531D+02
   xx         0.830420D+02      0.123056D+02      0.136918D+02
   yx         0.380679D+02      0.564107D+01      0.627654D+01
   yy         0.829170D+02      0.122870D+02      0.136712D+02
   zx        -0.428201D-02     -0.634529D-03     -0.706008D-03
   zy        -0.429591D-02     -0.636589D-03     -0.708301D-03
   zz         0.449117D+02      0.665522D+01      0.740493D+01

 ----------------------------------------------------------------------

 Dipole orientation:
     6         -6.09705674          6.10646179          4.43974089
    80         -6.09670770          6.10684400          0.53061614
     1         -4.14042667          6.21386665          5.11803405
     1         -6.98235081          4.35809075          5.11758588
     1         -7.16854099          7.74715749          5.11799676
    53         -6.09672663          6.10676936         -4.41689857

 Electric dipole moment (dipole orientation):
 (Debye = 10**-18 statcoulomb cm , SI units = C m)
                  (au)            (Debye)         (10**-30 SI)
   Tot        0.132300D+01      0.336273D+01      0.112169D+02
   x          0.000000D+00      0.000000D+00      0.000000D+00
   y          0.000000D+00      0.000000D+00      0.000000D+00
   z          0.132300D+01      0.336273D+01      0.112169D+02

 Dipole polarizability, Alpha (dipole orientation).
 (esu units = cm**3 , SI units = C**2 m**2 J**-1)
 Alpha(0;0):
               (au)            (10**-24 esu)      (10**-40 SI)
   iso        0.702902D+02      0.104159D+02      0.115893D+02
   aniso      0.761358D+02      0.112822D+02      0.125531D+02
   xx         0.449117D+02      0.665522D+01      0.740493D+01
   yx         0.129796D-04      0.192338D-05      0.214004D-05
   yy         0.449116D+02      0.665522D+01      0.740493D+01
   zx        -0.185497D-02     -0.274878D-03     -0.305844D-03
   zy        -0.154143D-02     -0.228416D-03     -0.254147D-03
   zz         0.121047D+03      0.179374D+02      0.199580D+02

 ----------------------------------------------------------------------

 Test job not archived.
 1\1\GINC-GRANADO-COMPUTE-16\Freq\RMP2-FC\def2SVP\C1H3Hg1I1\ROOT\17-Aug
 -2023\0\\#N Geom=AllCheck Guess=TCheck SCRF=Check Test GenChk RMP2(FC)
 /def2SVP Freq\\Optimization MeHgCl-apfd-def2svp-gas phase\\0,1\C,-4.88
 89127551,1.5716281929,0.0000459955\Hg,-3.4249908497,3.033175428,0.0000
 895507\H,-4.6544292187,0.8288528496,0.772982036\H,-4.9140940786,1.0890
 017086,-0.9851270962\H,-5.860044177,2.0363810609,0.2122461272\I,-1.572
 1779209,4.8829307599,-0.0002366132\\Version=EM64L-G16RevA.03\State=1-A
 \HF=-488.7880125\MP2=-489.4344735\RMSD=1.079e-09\RMSF=2.407e-05\ZeroPo
 int=0.0373505\Thermal=0.042534\Dipole=-0.9362682,-0.9347381,0.0001471\
 DipoleDeriv=-0.0639825,0.0785575,0.0000105,0.0785802,-0.0642138,0.0000
 07,0.0000094,0.000006,-0.1426712,0.8610001,0.5625036,-0.0000682,0.5624
 997,0.859145,-0.000068,-0.0000836,-0.0000834,0.2975713,-0.0154679,-0.1
 03055,0.0162811,-0.0574512,-0.075243,0.0672869,-0.0198117,0.0312459,0.
 0267757,-0.0188404,-0.1035102,-0.0380339,-0.0821511,-0.0466469,-0.0684
 317,0.0079655,-0.022505,0.0015615,-0.1081818,-0.0279825,0.0217616,-0.0
 949691,-0.0198538,0.0011571,0.0118414,-0.0087422,0.0641089,-0.6545276,
 -0.4065134,0.0000489,-0.4065085,-0.6531875,0.0000487,0.0000789,0.00007
 86,-0.2473463\Polar=83.0420216,38.0678558,82.9170498,-0.004282,-0.0042
 959,44.9116551\PG=C01 [X(C1H3Hg1I1)]\NImag=0\\0.44530324,-0.11816903,0
 .44566125,-0.00001048,-0.00000682,0.56364032,-0.08231269,-0.05126339,-
 0.00000138,0.15523384,-0.05126283,-0.08214593,-0.00000161,0.11742141,0
 .15485124,0.00000191,0.00000167,-0.03096557,-0.00000719,-0.00000718,0.
 03762103,-0.05054269,0.04451720,-0.03835992,0.00142057,-0.01125163,0.0
 1085244,0.05619743,0.05445316,-0.18050080,0.14898553,0.00148523,-0.009
 11336,0.00755433,-0.05008516,0.18664351,-0.04622130,0.14113587,-0.1947
 5455,0.00077526,-0.00250758,0.00154815,0.04919602,-0.15236138,0.203501
 36,-0.03885165,0.00094725,-0.01455689,-0.00219305,-0.00705027,-0.01272
 173,-0.00121307,-0.00367459,-0.00587034,0.04113426,0.00560055,-0.09964
 027,-0.12632432,-0.00108544,-0.00712055,-0.01074306,0.00019848,0.01109
 466,0.02081470,-0.00036754,0.10214036,-0.00453647,-0.11631973,-0.28730
 571,0.00012370,0.00208175,0.00316871,0.00086615,-0.01216032,-0.0154037
 4,0.00555476,0.12580922,0.30306672,-0.27914100,0.12554456,0.05292655,-
 0.01039951,0.00328847,0.00186738,-0.00345902,-0.00036802,0.00273856,0.
 00294341,-0.00261644,-0.00261068,0.29057868,0.11095547,-0.08892453,-0.
 02265486,-0.01541277,0.00510887,0.00318707,0.01761880,-0.00741067,-0.0
 0701036,0.01149384,-0.00544842,0.00031331,-0.12404426,0.09966791,0.050
 76767,-0.02480964,-0.05773889,-0.00089958,0.00042545,-0.00085276,-0.02
 129385,0.00869491,0.00534792,0.02617128,-0.01065135,-0.00301703,-0.054
 76077,0.02654553,0.05610055,0.00554479,-0.00157659,0.00000211,-0.06174
 916,-0.05114516,0.00000720,-0.00240322,-0.00181062,-0.00061820,-0.0018
 1990,-0.00172960,0.00060254,-0.00052255,-0.00061107,0.00001525,0.06095
 004,-0.00157732,0.00555028,0.00000209,-0.05114504,-0.06158027,0.000007
 18,-0.00099769,-0.00071335,-0.00007125,-0.00134869,-0.00102579,0.00027
 576,-0.00180431,-0.00299316,-0.00020490,0.05687304,0.06076229,-0.00000
 133,-0.00000134,0.00712439,0.00000919,0.00000917,-0.01051956,-0.001260
 84,-0.00071307,-0.00023914,0.00142292,0.00109482,-0.00050895,-0.000161
 04,-0.00038069,0.00016020,-0.00000890,-0.00000888,0.00398306\\0.000030
 79,0.00003599,-0.00000374,-0.00004268,-0.00004382,0.00000704,-0.000008
 94,-0.00001110,0.00000117,-0.00001107,-0.00001182,-0.00000126,-0.00001
 087,-0.00001182,-0.00000040,0.00004278,0.00004256,-0.00000281\\\@


 Luck is a matter of preparation meeting opportunity.
                                    -- Oprah Winfrey
 Job cpu time:       0 days  2 hours 15 minutes 37.9 seconds.
 Elapsed time:       0 days  2 hours  9 minutes 58.1 seconds.
 File lengths (MBytes):  RWF=    798 Int=      0 D2E=      0 Chk=      3 Scr=      1
 Normal termination of Gaussian 16 at Thu Aug 17 06:40:25 2023.
=      0 Chk=      3 Scr=      1
 Normal termination of Gaussian 16 at Thu Aug 17 06:28:40 2023.

ARS.  HALF THE WEIGHT OF THE MONKEY,
  PLUS THE WEIGHT OF THE BANANA, IS ONE FOURTH AS MUCH AS THE WEIGHT
 OF THE WEIGHT AND THE ROPE.
 THE MONKEY'S MOTHER IS HALF AS OLD AS THE MONKEY WILL BE
 WHEN IT IS 3 TIMES AS OLD AS ITS MOTHER WAS WHEN
 SHE WAS HALF AS OLD AS THE MONKEY WILL BE WHEN IT IS
 AS OLD AS ITS MOTHER WILL BE WHEN SHE IS 4 TIMES AS
 OLD AS THE MONKEY WAS WHEN IT WAS TWICE AS OLD AS 
 ITS MOTHER WAS WHEN SHE WAS ONE THIRD AS OLD AS THE
 MONKEY WAS WHEN IT WAS AS OLD AS ITS MOTHER WAS WHEN 
 SHE WAS 3 TIMES AS OLD AS THE MONKEY WAS WHEN IT WAS AS OLD AS ITS
 MOTHER WAS WHEN SHE WAS 3 TIMES AS OLD AS THE MONKEY 
 WAS WHEN IT WAS ONE FOURTH WAS OLD AS IT IS NOW.

 HOW LONG IS THE BANANA?
 Job cpu time:       0 days  2 hours  9 minutes 55.9 seconds.
 Elapsed time:       0 days  2 hours  3 minutes 38.3 seconds.
 File lengths (MBytes):  RWF=    798 Int=      0 D2E=      0 Chk=      3 Scr=      1
 Normal termination of Gaussian 16 at Thu Aug 17 05:51:53 2023.
