 Entering Gaussian System, Link 0=g16
 Input=input.gjf
 Output=input.log
 Initial command:
 /opt/ohpc/pub/apps/gaussian/G16x86_64_legacy_CPUs_linux_binary/g16/l1.exe "/tmp/Gau-62426.inp" -scrdir="/tmp/"
 Entering Link 1 = /opt/ohpc/pub/apps/gaussian/G16x86_64_legacy_CPUs_linux_binary/g16/l1.exe PID=     62450.
  
 Copyright (c) 1988,1990,1992,1993,1995,1998,2003,2009,2016,
            Gaussian, Inc.  All Rights Reserved.
  
 This is part of the Gaussian(R) 16 program.  It is based on
 the Gaussian(R) 09 system (copyright 2009, Gaussian, Inc.),
 the Gaussian(R) 03 system (copyright 2003, Gaussian, Inc.),
 the Gaussian(R) 98 system (copyright 1998, Gaussian, Inc.),
 the Gaussian(R) 94 system (copyright 1995, Gaussian, Inc.),
 the Gaussian 92(TM) system (copyright 1992, Gaussian, Inc.),
 the Gaussian 90(TM) system (copyright 1990, Gaussian, Inc.),
 the Gaussian 88(TM) system (copyright 1988, Gaussian, Inc.),
 the Gaussian 86(TM) system (copyright 1986, Carnegie Mellon
 University), and the Gaussian 82(TM) system (copyright 1983,
 Carnegie Mellon University). Gaussian is a federally registered
 trademark of Gaussian, Inc.
  
 This software contains proprietary and confidential information,
 including trade secrets, belonging to Gaussian, Inc.
  
 This software is provided under written license and may be
 used, copied, transmitted, or stored only in accord with that
 written license.
  
 The following legend is applicable only to US Government
 contracts under FAR:
  
                    RESTRICTED RIGHTS LEGEND
  
 Use, reproduction and disclosure by the US Government is
 subject to restrictions as set forth in subparagraphs (a)
 and (c) of the Commercial Computer Software - Restricted
 Rights clause in FAR 52.227-19.
  
 Gaussian, Inc.
 340 Quinnipiac St., Bldg. 40, Wallingford CT 06492
  
  
 ---------------------------------------------------------------
 Warning -- This program may not be used in any manner that
 competes with the business of Gaussian, Inc. or will provide
 assistance to any competitor of Gaussian, Inc.  The licensee
 of this program is prohibited from giving any competitor of
 Gaussian, Inc. access to this program.  By using this program,
 the user acknowledges that Gaussian, Inc. is engaged in the
 business of creating and licensing software in the field of
 computational chemistry and represents and warrants to the
 licensee that it is not a competitor of Gaussian, Inc. and that
 it will not use this program in any manner prohibited above.
 ---------------------------------------------------------------
  

 Cite this work as:
 Gaussian 16, Revision A.03,
 M. J. Frisch, G. W. Trucks, H. B. Schlegel, G. E. Scuseria, 
 M. A. Robb, J. R. Cheeseman, G. Scalmani, V. Barone, 
 G. A. Petersson, H. Nakatsuji, X. Li, M. Caricato, A. V. Marenich, 
 J. Bloino, B. G. Janesko, R. Gomperts, B. Mennucci, H. P. Hratchian, 
 J. V. Ortiz, A. F. Izmaylov, J. L. Sonnenberg, D. Williams-Young, 
 F. Ding, F. Lipparini, F. Egidi, J. Goings, B. Peng, A. Petrone, 
 T. Henderson, D. Ranasinghe, V. G. Zakrzewski, J. Gao, N. Rega, 
 G. Zheng, W. Liang, M. Hada, M. Ehara, K. Toyota, R. Fukuda, 
 J. Hasegawa, M. Ishida, T. Nakajima, Y. Honda, O. Kitao, H. Nakai, 
 T. Vreven, K. Throssell, J. A. Montgomery, Jr., J. E. Peralta, 
 F. Ogliaro, M. J. Bearpark, J. J. Heyd, E. N. Brothers, K. N. Kudin, 
 V. N. Staroverov, T. A. Keith, R. Kobayashi, J. Normand, 
 K. Raghavachari, A. P. Rendell, J. C. Burant, S. S. Iyengar, 
 J. Tomasi, M. Cossi, J. M. Millam, M. Klene, C. Adamo, R. Cammi, 
 J. W. Ochterski, R. L. Martin, K. Morokuma, O. Farkas, 
 J. B. Foresman, and D. J. Fox, Gaussian, Inc., Wallingford CT, 2016.
 
 ******************************************
 Gaussian 16:  EM64L-G16RevA.03 25-Dec-2016
                25-Aug-2022 
 ******************************************
 %NProcShared=24
 Will use up to   24 processors via shared memory.
 %Chk=ch3hgcl_gas_apfd_def2svp.chk
 ----------------------
 #Opt Freq apfd/Def2SVP
 ----------------------
 1/18=20,19=15,26=3,38=1/1,3;
 2/9=110,12=2,17=6,18=5,40=1/2;
 3/5=43,7=101,11=2,25=1,30=1,71=1,74=-44/1,2,3;
 4//1;
 5/5=2,38=5/2;
 6/7=2,8=2,9=2,10=2,28=1/1;
 7//1,2,3,16;
 1/18=20,19=15,26=3/3(2);
 2/9=110/2;
 99//99;
 2/9=110/2;
 3/5=43,7=101,11=2,25=1,30=1,71=1,74=-44/1,2,3;
 4/5=5,16=3,69=1/1;
 5/5=2,38=5/2;
 7//1,2,3,16;
 1/18=20,19=15,26=3/3(-5);
 2/9=110/2;
 6/7=2,8=2,9=2,10=2,19=2,28=1/1;
 99/9=1/99;
 ------------------------------------------
 Optimization MeHgCl-apfd-def2svp-gas phase
 ------------------------------------------
 Symbolic Z-matrix:
 Charge =  0 Multiplicity = 1
 C                    -4.87226   1.58796   0.00002 
 Hg                   -3.37421   3.08412   0.00005 
 H                    -4.63754   0.85031   0.7709 
 H                    -4.89474   1.108    -0.98111 
 H                    -5.83831   2.05276   0.2102 
 Cl                   -1.69759   4.75882  -0.00006 
 

 GradGradGradGradGradGradGradGradGradGradGradGradGradGradGradGradGradGrad
 Berny optimization.
 Initialization pass.
                           ----------------------------
                           !    Initial Parameters    !
                           ! (Angstroms and Degrees)  !
 --------------------------                            --------------------------
 ! Name  Definition              Value          Derivative Info.                !
 --------------------------------------------------------------------------------
 ! R1    R(1,2)                  2.1172         estimate D2E/DX2                !
 ! R2    R(1,3)                  1.0925         estimate D2E/DX2                !
 ! R3    R(1,4)                  1.0925         estimate D2E/DX2                !
 ! R4    R(1,5)                  1.0925         estimate D2E/DX2                !
 ! R5    R(2,6)                  2.3697         estimate D2E/DX2                !
 ! A1    A(2,1,3)              108.9724         estimate D2E/DX2                !
 ! A2    A(2,1,4)              108.9678         estimate D2E/DX2                !
 ! A3    A(2,1,5)              108.9665         estimate D2E/DX2                !
 ! A4    A(3,1,4)              109.9682         estimate D2E/DX2                !
 ! A5    A(3,1,5)              109.9692         estimate D2E/DX2                !
 ! A6    A(4,1,5)              109.9691         estimate D2E/DX2                !
 ! A7    L(1,2,6,5,-1)         179.9977         estimate D2E/DX2                !
 ! A8    L(1,2,6,5,-2)         180.0102         estimate D2E/DX2                !
 ! D1    D(2,1,4,3)            119.3833         estimate D2E/DX2                !
 ! D2    D(2,1,5,3)           -119.383          estimate D2E/DX2                !
 ! D3    D(2,1,5,4)            119.3773         estimate D2E/DX2                !
 ! D4    D(3,1,5,4)           -121.2396         estimate D2E/DX2                !
 --------------------------------------------------------------------------------
 Trust Radius=3.00D-01 FncErr=1.00D-07 GrdErr=1.00D-06 EigMax=2.50D+02 EigMin=1.00D-04
 Number of steps in this run=     27 maximum allowed number of steps=    100.
 GradGradGradGradGradGradGradGradGradGradGradGradGradGradGradGradGradGrad

                          Input orientation:                          
 ---------------------------------------------------------------------
 Center     Atomic      Atomic             Coordinates (Angstroms)
 Number     Number       Type             X           Y           Z
 ---------------------------------------------------------------------
      1          6           0       -4.872260    1.587957    0.000017
      2         80           0       -3.374214    3.084122    0.000049
      3          1           0       -4.637535    0.850314    0.770897
      4          1           0       -4.894741    1.107998   -0.981111
      5          1           0       -5.838309    2.052761    0.210203
      6         17           0       -1.697590    4.758818   -0.000055
 ---------------------------------------------------------------------
                    Distance matrix (angstroms):
                    1          2          3          4          5
     1  C    0.000000
     2  Hg   2.117227   0.000000
     3  H    1.092460   2.679568   0.000000
     4  H    1.092464   2.679504   1.789438   0.000000
     5  H    1.092461   2.679484   1.789445   1.789449   0.000000
     6  Cl   4.486969   2.369741   4.951166   4.951033   4.951011
                    6
     6  Cl   0.000000
 This structure is nearly, but not quite of a higher symmetry.
 Consider Symm=Loose if the higher symmetry is desired.
 Stoichiometry    CH3ClHg
 Framework group  C1[X(CH3ClHg)]
 Deg. of freedom    12
 Full point group                 C1      NOp   1
 Largest Abelian subgroup         C1      NOp   1
 Largest concise Abelian subgroup C1      NOp   1
                         Standard orientation:                         
 ---------------------------------------------------------------------
 Center     Atomic      Atomic             Coordinates (Angstroms)
 Number     Number       Type             X           Y           Z
 ---------------------------------------------------------------------
      1          6           0        0.297142    0.748231   -2.162465
      2         80           0        0.024524    0.061696   -0.178277
      3          1           0        1.297286    1.177816   -2.255399
      4          1           0       -0.456932    1.507538   -2.382247
      5          1           0        0.188187   -0.095236   -2.848150
      6         17           0       -0.280782   -0.706777    2.042514
 ---------------------------------------------------------------------
 Rotational constants (GHZ):         156.6014562           1.9411997           1.9411995
 Standard basis: def2SVP (5D, 7F)
 There are    86 symmetry adapted cartesian basis functions of A   symmetry.
 There are    79 symmetry adapted basis functions of A   symmetry.
    79 basis functions,   148 primitive gaussians,    86 cartesian basis functions
    23 alpha electrons       23 beta electrons
       nuclear repulsion energy       144.8526790930 Hartrees.
 NAtoms=    6 NActive=    6 NUniq=    6 SFac= 1.00D+00 NAtFMM=   60 NAOKFM=F Big=F
 Integral buffers will be    131072 words long.
 Raffenetti 2 integral format.
 Two-electron integral symmetry is turned on.
 R6APFD:  NTU= -4 IXU= 1 FactS= 1.050
 Nuclear repulsion after empirical dispersion term =      144.8319845055 Hartrees.
 One-electron integrals computed using PRISM.
 PrsmSu:  requested number of processors reduced to:  13 ShMem   1 Linda.
   1 Symmetry operations used in ECPInt.
 ECPInt:  NShTT=     630 NPrTT=    2138 LenC2=     623 LenP2D=    1798.
 LDataN:  DoStor=T MaxTD1= 8 Len=  415
 NBasis=    79 RedAO= T EigKep=  8.79D-03  NBF=    79
 NBsUse=    79 1.00D-06 EigRej= -1.00D+00 NBFU=    79
 Defaulting to unpruned grid for atomic number  80.
 ExpMin= 5.64D-02 ExpMax= 1.04D+04 ExpMxC= 1.57D+03 IAcc=3 IRadAn=         5 AccDes= 0.00D+00
 Harris functional with IExCor= 3731 and IRadAn=       5 diagonalized for initial guess.
 HarFok:  IExCor= 3731 AccDes= 0.00D+00 IRadAn=         5 IDoV= 1 UseB2=F ITyADJ=14
 ICtDFT=  3500011 ScaDFX=  1.000000  1.000000  1.000000  1.000000
 Defaulting to unpruned grid for atomic number  80.
 FoFCou: FMM=F IPFlag=           0 FMFlag=      100000 FMFlg1=           0
         NFxFlg=           0 DoJE=T BraDBF=F KetDBF=T FulRan=T
         wScrn=  0.000000 ICntrl=       500 IOpCl=  0 I1Cent=   200000004 NGrid=           0
         NMat0=    1 NMatS0=      1 NMatT0=    0 NMatD0=    1 NMtDS0=    0 NMtDT0=    0
 Petite list used in FoFCou.
 Keep R1 ints in memory in canonical form, NReq=26805742.
 Requested convergence on RMS density matrix=1.00D-08 within 128 cycles.
 Requested convergence on MAX density matrix=1.00D-06.
 Requested convergence on             energy=1.00D-06.
 No special actions if energy rises.
 Integral accuracy reduced to 1.0D-05 until final iterations.
 Defaulting to unpruned grid for atomic number  80.
 Defaulting to unpruned grid for atomic number  80.
 Defaulting to unpruned grid for atomic number  80.
 Defaulting to unpruned grid for atomic number  80.
 Defaulting to unpruned grid for atomic number  80.
 Defaulting to unpruned grid for atomic number  80.
 Defaulting to unpruned grid for atomic number  80.
 Defaulting to unpruned grid for atomic number  80.
 Defaulting to unpruned grid for atomic number  80.
 Defaulting to unpruned grid for atomic number  80.
 Defaulting to unpruned grid for atomic number  80.
 Defaulting to unpruned grid for atomic number  80.
 Defaulting to unpruned grid for atomic number  80.
 Defaulting to unpruned grid for atomic number  80.
 Defaulting to unpruned grid for atomic number  80.
 Defaulting to unpruned grid for atomic number  80.
 Defaulting to unpruned grid for atomic number  80.
 Defaulting to unpruned grid for atomic number  80.
 Defaulting to unpruned grid for atomic number  80.
 Defaulting to unpruned grid for atomic number  80.
 Defaulting to unpruned grid for atomic number  80.
 Defaulting to unpruned grid for atomic number  80.
 Defaulting to unpruned grid for atomic number  80.
 Defaulting to unpruned grid for atomic number  80.
 EnCoef did   100 forward-backward iterations
 Initial convergence to 1.0D-05 achieved.  Increase integral accuracy.
 SCF Done:  E(RAPFD) =  -653.368085967     A.U. after   15 cycles
            NFock= 15  Conv=0.38D-08     -V/T= 2.1894

 **********************************************************************

            Population analysis using the SCF density.

 **********************************************************************

 Orbital symmetries:
       Occupied  (A) (A) (A) (A) (A) (A) (A) (A) (A) (A) (A) (A)
                 (A) (A) (A) (A) (A) (A) (A) (A) (A) (A) (A)
       Virtual   (A) (A) (A) (A) (A) (A) (A) (A) (A) (A) (A) (A)
                 (A) (A) (A) (A) (A) (A) (A) (A) (A) (A) (A) (A)
                 (A) (A) (A) (A) (A) (A) (A) (A) (A) (A) (A) (A)
                 (A) (A) (A) (A) (A) (A) (A) (A) (A) (A) (A) (A)
                 (A) (A) (A) (A) (A) (A) (A) (A)
 The electronic state is 1-A.
 Alpha  occ. eigenvalues -- -101.55560 -10.23790  -9.45610  -7.20522  -7.19884
 Alpha  occ. eigenvalues --   -7.19884  -4.53094  -2.66484  -2.65804  -2.65804
 Alpha  occ. eigenvalues --   -0.77837  -0.71513  -0.51506  -0.50709  -0.50709
 Alpha  occ. eigenvalues --   -0.48745  -0.48745  -0.42016  -0.42016  -0.36997
 Alpha  occ. eigenvalues --   -0.30997  -0.28866  -0.28866
 Alpha virt. eigenvalues --   -0.03247  -0.00353  -0.00353   0.07014   0.13139
 Alpha virt. eigenvalues --    0.13139   0.15293   0.20287   0.41102   0.41102
 Alpha virt. eigenvalues --    0.45568   0.45568   0.47735   0.54070   0.55368
 Alpha virt. eigenvalues --    0.55369   0.63733   0.66781   0.66781   0.67429
 Alpha virt. eigenvalues --    0.80505   0.80505   0.82997   0.83156   0.83156
 Alpha virt. eigenvalues --    0.86586   0.86587   0.93780   0.98704   0.98704
 Alpha virt. eigenvalues --    1.03896   1.25068   1.25069   1.32581   1.50717
 Alpha virt. eigenvalues --    1.53928   1.53928   1.54348   1.54355   1.54419
 Alpha virt. eigenvalues --    1.54419   1.56836   1.75884   1.75885   1.93747
 Alpha virt. eigenvalues --    1.96934   1.96935   2.18726   2.33920   2.41653
 Alpha virt. eigenvalues --    2.41653   2.72238   2.89987   2.89988  33.29859
 Alpha virt. eigenvalues --  121.54185
          Condensed to atoms (all electrons):
               1          2          3          4          5          6
     1  C    4.997077   0.270902   0.376958   0.376954   0.376953  -0.006581
     2  Hg   0.270902  19.119737  -0.027402  -0.027406  -0.027407   0.238376
     3  H    0.376958  -0.027402   0.579592  -0.013314  -0.013313   0.000115
     4  H    0.376954  -0.027406  -0.013314   0.579598  -0.013313   0.000115
     5  H    0.376953  -0.027407  -0.013313  -0.013313   0.579599   0.000116
     6  Cl  -0.006581   0.238376   0.000115   0.000115   0.000116  17.120892
 Mulliken charges:
               1
     1  C   -0.392263
     2  Hg   0.453200
     3  H    0.097364
     4  H    0.097366
     5  H    0.097367
     6  Cl  -0.353034
 Sum of Mulliken charges =  -0.00000
 Mulliken charges with hydrogens summed into heavy atoms:
               1
     1  C   -0.100166
     2  Hg   0.453200
     6  Cl  -0.353034
 Electronic spatial extent (au):  <R**2>=            591.9570
 Charge=             -0.0000 electrons
 Dipole moment (field-independent basis, Debye):
    X=              0.4728    Y=              1.1901    Z=             -3.4394  Tot=              3.6701
 Quadrupole moment (field-independent basis, Debye-Ang):
   XX=            -42.5035   YY=            -43.0960   ZZ=            -48.2688
   XY=             -0.2795   XZ=              0.8078   YZ=              2.0334
 Traceless Quadrupole moment (field-independent basis, Debye-Ang):
   XX=              2.1193   YY=              1.5267   ZZ=             -3.6460
   XY=             -0.2795   XZ=              0.8078   YZ=              2.0334
 Octapole moment (field-independent basis, Debye-Ang**2):
  XXX=              3.0942  YYY=              6.7795  ZZZ=            -26.6847  XYY=              0.7166
  XXY=              2.9386  XXZ=             -6.6272  XZZ=              1.8337  YZZ=              4.4830
  YYZ=             -7.7237  XYZ=             -0.3385
 Hexadecapole moment (field-independent basis, Debye-Ang**3):
 XXXX=            -61.2613 YYYY=           -118.5966 ZZZZ=           -614.4338 XXXY=            -12.0755
 XXXZ=             36.9209 YYYX=            -14.0892 YYYZ=             95.6336 ZZZX=             39.8492
 ZZZY=            101.3605 XXYY=            -28.9512 XXZZ=           -111.1204 YYZZ=           -119.9997
 XXYZ=             30.2123 YYXZ=             13.4781 ZZXY=             -5.0629
 N-N= 1.448319845055D+02 E-N=-1.796068185012D+03  KE= 5.493276880232D+02
 R6APFD:  NTU= -4 IXU= 1 FactS= 1.050
 PrsmSu:  requested number of processors reduced to:  13 ShMem   1 Linda.
   1 Symmetry operations used in ECPInt.
 ECPInt:  NShTT=     630 NPrTT=    2138 LenC2=     623 LenP2D=    1798.
 LDataN:  DoStor=T MaxTD1= 9 Len=  602
 Calling FoFJK, ICntrl=      2127 FMM=F ISym2X=0 I1Cent= 0 IOpClX= 0 NMat=1 NMatS=1 NMatT=0.
 Defaulting to unpruned grid for atomic number  80.
 Defaulting to unpruned grid for atomic number  80.
 Defaulting to unpruned grid for atomic number  80.
 Defaulting to unpruned grid for atomic number  80.
 Defaulting to unpruned grid for atomic number  80.
 Defaulting to unpruned grid for atomic number  80.
 Defaulting to unpruned grid for atomic number  80.
 Defaulting to unpruned grid for atomic number  80.
 Defaulting to unpruned grid for atomic number  80.
 Defaulting to unpruned grid for atomic number  80.
 Defaulting to unpruned grid for atomic number  80.
 Defaulting to unpruned grid for atomic number  80.
 Defaulting to unpruned grid for atomic number  80.
 Defaulting to unpruned grid for atomic number  80.
 Defaulting to unpruned grid for atomic number  80.
 Defaulting to unpruned grid for atomic number  80.
 Defaulting to unpruned grid for atomic number  80.
 Defaulting to unpruned grid for atomic number  80.
 Defaulting to unpruned grid for atomic number  80.
 Defaulting to unpruned grid for atomic number  80.
 Defaulting to unpruned grid for atomic number  80.
 Defaulting to unpruned grid for atomic number  80.
 Defaulting to unpruned grid for atomic number  80.
 Defaulting to unpruned grid for atomic number  80.
 ***** Axes restored to original set *****
 -------------------------------------------------------------------
 Center     Atomic                   Forces (Hartrees/Bohr)
 Number     Number              X              Y              Z
 -------------------------------------------------------------------
      1        6           0.009099891    0.009091339   -0.000002617
      2       80           0.004779126    0.004758704   -0.000008821
      3        1           0.001635003   -0.001664668    0.002616703
      4        1           0.000760636   -0.000791049   -0.003326607
      5        1          -0.002441429    0.002412379    0.000713408
      6       17          -0.013833226   -0.013806705    0.000007934
 -------------------------------------------------------------------
 Cartesian Forces:  Max     0.013833226 RMS     0.005915048

 GradGradGradGradGradGradGradGradGradGradGradGradGradGradGradGradGradGrad
 Berny optimization.
 FormGI is forming the generalized inverse of G from B-inverse, IUseBI=4.
 Internal  Forces:  Max     0.019544390 RMS     0.005852025
 Search for a local minimum.
 Step number   1 out of a maximum of   27
 All quantities printed in internal units (Hartrees-Bohrs-Radians)
 Mixed Optimization -- RFO/linear search
 Second derivative matrix not updated -- first step.
 The second derivative matrix:
                          R1        R2        R3        R4        R5
           R1           0.14592
           R2           0.00000   0.34530
           R3           0.00000   0.00000   0.34529
           R4           0.00000   0.00000   0.00000   0.34530
           R5           0.00000   0.00000   0.00000   0.00000   0.17214
           A1           0.00000   0.00000   0.00000   0.00000   0.00000
           A2           0.00000   0.00000   0.00000   0.00000   0.00000
           A3           0.00000   0.00000   0.00000   0.00000   0.00000
           A4           0.00000   0.00000   0.00000   0.00000   0.00000
           A5           0.00000   0.00000   0.00000   0.00000   0.00000
           A6           0.00000   0.00000   0.00000   0.00000   0.00000
           A7           0.00000   0.00000   0.00000   0.00000   0.00000
           A8           0.00000   0.00000   0.00000   0.00000   0.00000
           D1           0.00000   0.00000   0.00000   0.00000   0.00000
           D2           0.00000   0.00000   0.00000   0.00000   0.00000
           D3           0.00000   0.00000   0.00000   0.00000   0.00000
           D4           0.00000   0.00000   0.00000   0.00000   0.00000
                          A1        A2        A3        A4        A5
           A1           0.16000
           A2           0.00000   0.16000
           A3           0.00000   0.00000   0.16000
           A4           0.00000   0.00000   0.00000   0.16000
           A5           0.00000   0.00000   0.00000   0.00000   0.16000
           A6           0.00000   0.00000   0.00000   0.00000   0.00000
           A7           0.00000   0.00000   0.00000   0.00000   0.00000
           A8           0.00000   0.00000   0.00000   0.00000   0.00000
           D1           0.00000   0.00000   0.00000   0.00000   0.00000
           D2           0.00000   0.00000   0.00000   0.00000   0.00000
           D3           0.00000   0.00000   0.00000   0.00000   0.00000
           D4           0.00000   0.00000   0.00000   0.00000   0.00000
                          A6        A7        A8        D1        D2
           A6           0.16000
           A7           0.00000   0.00230
           A8           0.00000   0.00000   0.00230
           D1           0.00000   0.00000   0.00000   0.00230
           D2           0.00000   0.00000   0.00000   0.00000   0.00230
           D3           0.00000   0.00000   0.00000   0.00000   0.00000
           D4           0.00000   0.00000   0.00000   0.00000   0.00000
                          D3        D4
           D3           0.00230
           D4           0.00000   0.00230
 ITU=  0
     Eigenvalues ---    0.00230   0.00230   0.05051   0.05656   0.08734
     Eigenvalues ---    0.14592   0.16000   0.16000   0.17214   0.34529
     Eigenvalues ---    0.34530   0.34530
 RFO step:  Lambda=-3.41496430D-03 EMin= 2.30000000D-03
 Linear search not attempted -- first point.
 Iteration  1 RMS(Cart)=  0.04636161 RMS(Int)=  0.00005659
 Iteration  2 RMS(Cart)=  0.00006222 RMS(Int)=  0.00003331
 Iteration  3 RMS(Cart)=  0.00000000 RMS(Int)=  0.00003331
 Variable       Old X    -DE/DX   Delta X   Delta X   Delta X     New X
                                 (Linear)    (Quad)   (Total)
    R1        4.00098  -0.01280   0.00000  -0.08571  -0.08571   3.91527
    R2        2.06445   0.00332   0.00000   0.00953   0.00953   2.07398
    R3        2.06446   0.00332   0.00000   0.00952   0.00952   2.07398
    R4        2.06445   0.00332   0.00000   0.00953   0.00953   2.07398
    R5        4.47816  -0.01954   0.00000  -0.11133  -0.11133   4.36684
    A1        1.90193  -0.00025   0.00000  -0.00662  -0.00660   1.89533
    A2        1.90185  -0.00039   0.00000  -0.00674  -0.00672   1.89512
    A3        1.90182  -0.00077   0.00000  -0.00695  -0.00695   1.89487
    A4        1.91931   0.00009   0.00000   0.00643   0.00634   1.92565
    A5        1.91932   0.00061   0.00000   0.00675   0.00669   1.92601
    A6        1.91932   0.00069   0.00000   0.00676   0.00671   1.92604
    A7        3.14155  -0.00003   0.00000  -0.00497  -0.00497   3.13659
    A8        3.14177  -0.00001   0.00000  -0.00111  -0.00111   3.14066
    D1        2.08363  -0.00049   0.00000  -0.00835  -0.00838   2.07525
    D2       -2.08363   0.00041   0.00000   0.00829   0.00831  -2.07531
    D3        2.08353  -0.00054   0.00000  -0.00843  -0.00845   2.07507
    D4       -2.11603  -0.00095   0.00000  -0.01672  -0.01677  -2.13280
         Item               Value     Threshold  Converged?
 Maximum Force            0.019544     0.000450     NO 
 RMS     Force            0.005852     0.000300     NO 
 Maximum Displacement     0.113344     0.001800     NO 
 RMS     Displacement     0.046373     0.001200     NO 
 Predicted change in Energy=-1.743238D-03
 GradGradGradGradGradGradGradGradGradGradGradGradGradGradGradGradGradGrad

                          Input orientation:                          
 ---------------------------------------------------------------------
 Center     Atomic      Atomic             Coordinates (Angstroms)
 Number     Number       Type             X           Y           Z
 ---------------------------------------------------------------------
      1          6           0       -4.856404    1.603566   -0.000013
      2         80           0       -3.387740    3.064958   -0.001165
      3          1           0       -4.615649    0.866079    0.776298
      4          1           0       -4.874749    1.125383   -0.987693
      5          1           0       -5.822537    2.079201    0.211826
      6         17           0       -1.757569    4.702784    0.000747
 ---------------------------------------------------------------------
                    Distance matrix (angstroms):
                    1          2          3          4          5
     1  C    0.000000
     2  Hg   2.071869   0.000000
     3  H    1.097501   2.635769   0.000000
     4  H    1.097501   2.635599   1.801675   0.000000
     5  H    1.097504   2.635397   1.801907   1.801920   0.000000
     6  Cl   4.382685   2.310830   4.846690   4.846815   4.842696
                    6
     6  Cl   0.000000
 Stoichiometry    CH3ClHg
 Framework group  C1[X(CH3ClHg)]
 Deg. of freedom    12
 Full point group                 C1      NOp   1
 Largest Abelian subgroup         C1      NOp   1
 Largest concise Abelian subgroup C1      NOp   1
                         Standard orientation:                         
 ---------------------------------------------------------------------
 Center     Atomic      Atomic             Coordinates (Angstroms)
 Number     Number       Type             X           Y           Z
 ---------------------------------------------------------------------
      1          6           0        2.256652   -0.005485    0.000145
      2         80           0        0.184794    0.001258   -0.000032
      3          1           0        2.608077    0.469376    0.925086
      4          1           0        2.608298    0.556552   -0.874479
      5          1           0        2.602753   -1.045772   -0.050194
      6         17           0       -2.126032   -0.002815    0.000073
 ---------------------------------------------------------------------
 Rotational constants (GHZ):         154.4062574           2.0359760           2.0359628
 Standard basis: def2SVP (5D, 7F)
 There are    86 symmetry adapted cartesian basis functions of A   symmetry.
 There are    79 symmetry adapted basis functions of A   symmetry.
    79 basis functions,   148 primitive gaussians,    86 cartesian basis functions
    23 alpha electrons       23 beta electrons
       nuclear repulsion energy       148.0013501748 Hartrees.
 NAtoms=    6 NActive=    6 NUniq=    6 SFac= 1.00D+00 NAtFMM=   60 NAOKFM=F Big=F
 Integral buffers will be    131072 words long.
 Raffenetti 2 integral format.
 Two-electron integral symmetry is turned on.
 R6APFD:  NTU= -4 IXU= 1 FactS= 1.050
 Nuclear repulsion after empirical dispersion term =      147.9797325222 Hartrees.
 One-electron integrals computed using PRISM.
 PrsmSu:  requested number of processors reduced to:  13 ShMem   1 Linda.
   1 Symmetry operations used in ECPInt.
 ECPInt:  NShTT=     630 NPrTT=    2138 LenC2=     623 LenP2D=    1804.
 LDataN:  DoStor=T MaxTD1= 8 Len=  415
 NBasis=    79 RedAO= T EigKep=  8.43D-03  NBF=    79
 NBsUse=    79 1.00D-06 EigRej= -1.00D+00 NBFU=    79
 Defaulting to unpruned grid for atomic number  80.
 Initial guess from the checkpoint file:  "ch3hgcl_gas_apfd_def2svp.chk"
 B after Tr=     0.000000   -0.000000   -0.000000
         Rot=    0.733463    0.162603    0.655631    0.075761 Ang=  85.64 deg.
 ExpMin= 5.64D-02 ExpMax= 1.04D+04 ExpMxC= 1.57D+03 IAcc=2 IRadAn=         4 AccDes= 0.00D+00
 Harris functional with IExCor= 3731 and IRadAn=       4 diagonalized for initial guess.
 HarFok:  IExCor= 3731 AccDes= 0.00D+00 IRadAn=         4 IDoV= 1 UseB2=F ITyADJ=14
 ICtDFT=  3500011 ScaDFX=  1.000000  1.000000  1.000000  1.000000
 Defaulting to unpruned grid for atomic number  80.
 FoFCou: FMM=F IPFlag=           0 FMFlag=      100000 FMFlg1=           0
         NFxFlg=           0 DoJE=T BraDBF=F KetDBF=T FulRan=T
         wScrn=  0.000000 ICntrl=       500 IOpCl=  0 I1Cent=   200000004 NGrid=           0
         NMat0=    1 NMatS0=      1 NMatT0=    0 NMatD0=    1 NMtDS0=    0 NMtDT0=    0
 Petite list used in FoFCou.
 Keep R1 ints in memory in canonical form, NReq=26805742.
 Requested convergence on RMS density matrix=1.00D-08 within 128 cycles.
 Requested convergence on MAX density matrix=1.00D-06.
 Requested convergence on             energy=1.00D-06.
 No special actions if energy rises.
 Integral accuracy reduced to 1.0D-05 until final iterations.
 Defaulting to unpruned grid for atomic number  80.
 Defaulting to unpruned grid for atomic number  80.
 Defaulting to unpruned grid for atomic number  80.
 Defaulting to unpruned grid for atomic number  80.
 Defaulting to unpruned grid for atomic number  80.
 Defaulting to unpruned grid for atomic number  80.
 Defaulting to unpruned grid for atomic number  80.
 Defaulting to unpruned grid for atomic number  80.
 Defaulting to unpruned grid for atomic number  80.
 Defaulting to unpruned grid for atomic number  80.
 Defaulting to unpruned grid for atomic number  80.
 Defaulting to unpruned grid for atomic number  80.
 Defaulting to unpruned grid for atomic number  80.
 Defaulting to unpruned grid for atomic number  80.
 Defaulting to unpruned grid for atomic number  80.
 Defaulting to unpruned grid for atomic number  80.
 Defaulting to unpruned grid for atomic number  80.
 Defaulting to unpruned grid for atomic number  80.
 Defaulting to unpruned grid for atomic number  80.
 Defaulting to unpruned grid for atomic number  80.
 Defaulting to unpruned grid for atomic number  80.
 Defaulting to unpruned grid for atomic number  80.
 Defaulting to unpruned grid for atomic number  80.
 Defaulting to unpruned grid for atomic number  80.
 Initial convergence to 1.0D-05 achieved.  Increase integral accuracy.
 SCF Done:  E(RAPFD) =  -653.369950670     A.U. after   11 cycles
            NFock= 11  Conv=0.54D-08     -V/T= 2.1893
 R6APFD:  NTU= -4 IXU= 1 FactS= 1.050
 PrsmSu:  requested number of processors reduced to:  13 ShMem   1 Linda.
   1 Symmetry operations used in ECPInt.
 ECPInt:  NShTT=     630 NPrTT=    2138 LenC2=     623 LenP2D=    1804.
 LDataN:  DoStor=T MaxTD1= 9 Len=  602
 Calling FoFJK, ICntrl=      2127 FMM=F ISym2X=0 I1Cent= 0 IOpClX= 0 NMat=1 NMatS=1 NMatT=0.
 Defaulting to unpruned grid for atomic number  80.
 Defaulting to unpruned grid for atomic number  80.
 Defaulting to unpruned grid for atomic number  80.
 Defaulting to unpruned grid for atomic number  80.
 Defaulting to unpruned grid for atomic number  80.
 Defaulting to unpruned grid for atomic number  80.
 Defaulting to unpruned grid for atomic number  80.
 Defaulting to unpruned grid for atomic number  80.
 Defaulting to unpruned grid for atomic number  80.
 Defaulting to unpruned grid for atomic number  80.
 Defaulting to unpruned grid for atomic number  80.
 Defaulting to unpruned grid for atomic number  80.
 Defaulting to unpruned grid for atomic number  80.
 Defaulting to unpruned grid for atomic number  80.
 Defaulting to unpruned grid for atomic number  80.
 Defaulting to unpruned grid for atomic number  80.
 Defaulting to unpruned grid for atomic number  80.
 Defaulting to unpruned grid for atomic number  80.
 Defaulting to unpruned grid for atomic number  80.
 Defaulting to unpruned grid for atomic number  80.
 Defaulting to unpruned grid for atomic number  80.
 Defaulting to unpruned grid for atomic number  80.
 Defaulting to unpruned grid for atomic number  80.
 Defaulting to unpruned grid for atomic number  80.
 ***** Axes restored to original set *****
 -------------------------------------------------------------------
 Center     Atomic                   Forces (Hartrees/Bohr)
 Number     Number              X              Y              Z
 -------------------------------------------------------------------
      1        6          -0.000117842   -0.000384560   -0.000058821
      2       80           0.004786704    0.005165805    0.000086026
      3        1          -0.000786197   -0.000410601   -0.000272228
      4        1          -0.000707713   -0.000512985    0.000358274
      5        1          -0.000318268   -0.000827211   -0.000076350
      6       17          -0.002856684   -0.003030448   -0.000036900
 -------------------------------------------------------------------
 Cartesian Forces:  Max     0.005165805 RMS     0.001967244

 GradGradGradGradGradGradGradGradGradGradGradGradGradGradGradGradGradGrad
 Berny optimization.
 Using GEDIIS/GDIIS optimizer.
 FormGI is forming the generalized inverse of G from B-inverse, IUseBI=4.
 Internal  Forces:  Max     0.004163136 RMS     0.001284354
 Search for a local minimum.
 Step number   2 out of a maximum of   27
 All quantities printed in internal units (Hartrees-Bohrs-Radians)
 Mixed Optimization -- RFO/linear search
 Update second derivatives using D2CorX and points    1    2
 DE= -1.86D-03 DEPred=-1.74D-03 R= 1.07D+00
 TightC=F SS=  1.41D+00  RLast= 1.44D-01 DXNew= 5.0454D-01 4.3264D-01
 Trust test= 1.07D+00 RLast= 1.44D-01 DXMaxT set to 4.33D-01
 The second derivative matrix:
                          R1        R2        R3        R4        R5
           R1           0.17493
           R2          -0.00419   0.34565
           R3          -0.00418   0.00035   0.34564
           R4          -0.00421   0.00036   0.00036   0.34566
           R5           0.00269   0.00267   0.00268   0.00265   0.13528
           A1          -0.00170   0.00055   0.00055   0.00055  -0.00385
           A2          -0.00040   0.00027   0.00027   0.00027  -0.00261
           A3           0.00234  -0.00032  -0.00032  -0.00032   0.00000
           A4           0.00306  -0.00084  -0.00084  -0.00084   0.00510
           A5          -0.00128   0.00010   0.00010   0.00010   0.00095
           A6          -0.00202   0.00026   0.00026   0.00026   0.00023
           A7           0.00257  -0.00056  -0.00056  -0.00056   0.00250
           A8           0.00010  -0.00002  -0.00002  -0.00002   0.00010
           D1           0.00444  -0.00096  -0.00096  -0.00096   0.00432
           D2          -0.00349   0.00076   0.00076   0.00076  -0.00339
           D3           0.00472  -0.00102  -0.00102  -0.00103   0.00459
           D4           0.00821  -0.00178  -0.00178  -0.00178   0.00798
                          A1        A2        A3        A4        A5
           A1           0.15973
           A2          -0.00023   0.15983
           A3          -0.00016  -0.00005   0.16019
           A4           0.00030   0.00029   0.00027   0.15970
           A5           0.00018   0.00009  -0.00010  -0.00027   0.16003
           A6           0.00016   0.00006  -0.00016  -0.00027   0.00008
           A7           0.00007   0.00012   0.00022  -0.00002  -0.00018
           A8           0.00000   0.00000   0.00001  -0.00000  -0.00001
           D1           0.00013   0.00021   0.00038  -0.00004  -0.00031
           D2          -0.00010  -0.00016  -0.00030   0.00003   0.00024
           D3           0.00014   0.00022   0.00040  -0.00004  -0.00033
           D4           0.00024   0.00039   0.00070  -0.00007  -0.00057
                          A6        A7        A8        D1        D2
           A6           0.16014
           A7          -0.00020   0.00239
           A8          -0.00001   0.00000   0.00230
           D1          -0.00035   0.00016   0.00001   0.00257
           D2           0.00028  -0.00012  -0.00001  -0.00021   0.00247
           D3          -0.00038   0.00016   0.00001   0.00028  -0.00023
           D4          -0.00065   0.00029   0.00001   0.00050  -0.00039
                          D3        D4
           D3           0.00260
           D4           0.00053   0.00322
 ITU=  1  0
 Use linear search instead of GDIIS.
     Eigenvalues ---    0.00230   0.00230   0.05056   0.05674   0.08808
     Eigenvalues ---    0.13507   0.15938   0.16000   0.17692   0.34530
     Eigenvalues ---    0.34530   0.34681
 RFO step:  Lambda=-3.13653602D-04 EMin= 2.29995295D-03
 Quartic linear search produced a step of  0.04698.
 Iteration  1 RMS(Cart)=  0.10393814 RMS(Int)=  0.00892642
 Iteration  2 RMS(Cart)=  0.01151583 RMS(Int)=  0.00008160
 Iteration  3 RMS(Cart)=  0.00004355 RMS(Int)=  0.00002553
 Iteration  4 RMS(Cart)=  0.00000001 RMS(Int)=  0.00002553
 Variable       Old X    -DE/DX   Delta X   Delta X   Delta X     New X
                                 (Linear)    (Quad)   (Total)
    R1        3.91527   0.00287  -0.00403   0.01725   0.01323   3.92849
    R2        2.07398  -0.00009   0.00045   0.00014   0.00059   2.07457
    R3        2.07398  -0.00009   0.00045   0.00015   0.00060   2.07457
    R4        2.07398  -0.00009   0.00045   0.00013   0.00058   2.07456
    R5        4.36684  -0.00416  -0.00523  -0.02973  -0.03496   4.33188
    A1        1.89533   0.00021  -0.00031   0.00615   0.00586   1.90119
    A2        1.89512   0.00036  -0.00032   0.00641   0.00611   1.90123
    A3        1.89487   0.00057  -0.00033   0.00559   0.00526   1.90013
    A4        1.92565  -0.00006   0.00030  -0.00565  -0.00541   1.92024
    A5        1.92601  -0.00048   0.00031  -0.00594  -0.00566   1.92035
    A6        1.92604  -0.00056   0.00032  -0.00596  -0.00568   1.92035
    A7        3.13659   0.00051  -0.00023   0.20685   0.20662   3.34321
    A8        3.14066   0.00002  -0.00005   0.00728   0.00722   3.14788
    D1        2.07525   0.00044  -0.00039   0.00808   0.00766   2.08291
    D2       -2.07531  -0.00032   0.00039  -0.00741  -0.00700  -2.08231
    D3        2.07507   0.00045  -0.00040   0.00771   0.00729   2.08236
    D4       -2.13280   0.00078  -0.00079   0.01511   0.01428  -2.11852
         Item               Value     Threshold  Converged?
 Maximum Force            0.004163     0.000450     NO 
 RMS     Force            0.001284     0.000300     NO 
 Maximum Displacement     0.238314     0.001800     NO 
 RMS     Displacement     0.108557     0.001200     NO 
 Predicted change in Energy=-1.683346D-04
 GradGradGradGradGradGradGradGradGradGradGradGradGradGradGradGradGradGrad

                          Input orientation:                          
 ---------------------------------------------------------------------
 Center     Atomic      Atomic             Coordinates (Angstroms)
 Number     Number       Type             X           Y           Z
 ---------------------------------------------------------------------
      1          6           0       -4.855326    1.614190    0.001406
      2         80           0       -3.501075    3.191068    0.035446
      3          1           0       -4.571565    0.884352    0.770829
      4          1           0       -4.829713    1.144018   -0.990301
      5          1           0       -5.860539    2.004988    0.206373
      6         17           0       -1.696431    4.603353   -0.023753
 ---------------------------------------------------------------------
                    Distance matrix (angstroms):
                    1          2          3          4          5
     1  C    0.000000
     2  Hg   2.078869   0.000000
     3  H    1.097814   2.647202   0.000000
     4  H    1.097817   2.647235   1.798791   0.000000
     5  H    1.097811   2.646332   1.798859   1.798861   0.000000
     6  Cl   4.349061   2.292333   4.767465   4.766410   4.913680
                    6
     6  Cl   0.000000
 Stoichiometry    CH3ClHg
 Framework group  C1[X(CH3ClHg)]
 Deg. of freedom    12
 Full point group                 C1      NOp   1
 Largest Abelian subgroup         C1      NOp   1
 Largest concise Abelian subgroup C1      NOp   1
                         Standard orientation:                         
 ---------------------------------------------------------------------
 Center     Atomic      Atomic             Coordinates (Angstroms)
 Number     Number       Type             X           Y           Z
 ---------------------------------------------------------------------
      1          6           0        2.243031    0.218889   -0.000000
      2         80           0        0.181689   -0.050499   -0.000000
      3          1           0        2.529653    0.774098    0.902655
      4          1           0        2.528223    0.785345   -0.896100
      5          1           0        2.729693   -0.765137   -0.006539
      6         17           0       -2.104758    0.113663    0.000000
 ---------------------------------------------------------------------
 Rotational constants (GHZ):         102.4908586           2.0712899           2.0572094
 Standard basis: def2SVP (5D, 7F)
 There are    86 symmetry adapted cartesian basis functions of A   symmetry.
 There are    79 symmetry adapted basis functions of A   symmetry.
    79 basis functions,   148 primitive gaussians,    86 cartesian basis functions
    23 alpha electrons       23 beta electrons
       nuclear repulsion energy       148.6043627311 Hartrees.
 NAtoms=    6 NActive=    6 NUniq=    6 SFac= 1.00D+00 NAtFMM=   60 NAOKFM=F Big=F
 Integral buffers will be    131072 words long.
 Raffenetti 2 integral format.
 Two-electron integral symmetry is turned on.
 R6APFD:  NTU= -4 IXU= 1 FactS= 1.050
 Nuclear repulsion after empirical dispersion term =      148.5824968518 Hartrees.
 One-electron integrals computed using PRISM.
 PrsmSu:  requested number of processors reduced to:  13 ShMem   1 Linda.
   1 Symmetry operations used in ECPInt.
 ECPInt:  NShTT=     630 NPrTT=    2138 LenC2=     623 LenP2D=    1811.
 LDataN:  DoStor=T MaxTD1= 8 Len=  415
 NBasis=    79 RedAO= T EigKep=  8.50D-03  NBF=    79
 NBsUse=    79 1.00D-06 EigRej= -1.00D+00 NBFU=    79
 Defaulting to unpruned grid for atomic number  80.
 Initial guess from the checkpoint file:  "ch3hgcl_gas_apfd_def2svp.chk"
 B after Tr=    -0.000000   -0.000000   -0.000000
         Rot=    0.999772    0.021287    0.000031   -0.001527 Ang=   2.45 deg.
 ExpMin= 5.64D-02 ExpMax= 1.04D+04 ExpMxC= 1.57D+03 IAcc=2 IRadAn=         4 AccDes= 0.00D+00
 Harris functional with IExCor= 3731 and IRadAn=       4 diagonalized for initial guess.
 HarFok:  IExCor= 3731 AccDes= 0.00D+00 IRadAn=         4 IDoV= 1 UseB2=F ITyADJ=14
 ICtDFT=  3500011 ScaDFX=  1.000000  1.000000  1.000000  1.000000
 Defaulting to unpruned grid for atomic number  80.
 FoFCou: FMM=F IPFlag=           0 FMFlag=      100000 FMFlg1=           0
         NFxFlg=           0 DoJE=T BraDBF=F KetDBF=T FulRan=T
         wScrn=  0.000000 ICntrl=       500 IOpCl=  0 I1Cent=   200000004 NGrid=           0
         NMat0=    1 NMatS0=      1 NMatT0=    0 NMatD0=    1 NMtDS0=    0 NMtDT0=    0
 Petite list used in FoFCou.
 Keep R1 ints in memory in canonical form, NReq=26805742.
 Requested convergence on RMS density matrix=1.00D-08 within 128 cycles.
 Requested convergence on MAX density matrix=1.00D-06.
 Requested convergence on             energy=1.00D-06.
 No special actions if energy rises.
 Integral accuracy reduced to 1.0D-05 until final iterations.
 Defaulting to unpruned grid for atomic number  80.
 Defaulting to unpruned grid for atomic number  80.
 Defaulting to unpruned grid for atomic number  80.
 Defaulting to unpruned grid for atomic number  80.
 Defaulting to unpruned grid for atomic number  80.
 Defaulting to unpruned grid for atomic number  80.
 Defaulting to unpruned grid for atomic number  80.
 Defaulting to unpruned grid for atomic number  80.
 Defaulting to unpruned grid for atomic number  80.
 Defaulting to unpruned grid for atomic number  80.
 Defaulting to unpruned grid for atomic number  80.
 Defaulting to unpruned grid for atomic number  80.
 Defaulting to unpruned grid for atomic number  80.
 Defaulting to unpruned grid for atomic number  80.
 Defaulting to unpruned grid for atomic number  80.
 Defaulting to unpruned grid for atomic number  80.
 Defaulting to unpruned grid for atomic number  80.
 Defaulting to unpruned grid for atomic number  80.
 Defaulting to unpruned grid for atomic number  80.
 Defaulting to unpruned grid for atomic number  80.
 Defaulting to unpruned grid for atomic number  80.
 Defaulting to unpruned grid for atomic number  80.
 Defaulting to unpruned grid for atomic number  80.
 Defaulting to unpruned grid for atomic number  80.
 Initial convergence to 1.0D-05 achieved.  Increase integral accuracy.
 SCF Done:  E(RAPFD) =  -653.367915133     A.U. after   13 cycles
            NFock= 13  Conv=0.63D-08     -V/T= 2.1892
 R6APFD:  NTU= -4 IXU= 1 FactS= 1.050
 PrsmSu:  requested number of processors reduced to:  13 ShMem   1 Linda.
   1 Symmetry operations used in ECPInt.
 ECPInt:  NShTT=     630 NPrTT=    2138 LenC2=     623 LenP2D=    1811.
 LDataN:  DoStor=T MaxTD1= 9 Len=  602
 Calling FoFJK, ICntrl=      2127 FMM=F ISym2X=0 I1Cent= 0 IOpClX= 0 NMat=1 NMatS=1 NMatT=0.
 Defaulting to unpruned grid for atomic number  80.
 Defaulting to unpruned grid for atomic number  80.
 Defaulting to unpruned grid for atomic number  80.
 Defaulting to unpruned grid for atomic number  80.
 Defaulting to unpruned grid for atomic number  80.
 Defaulting to unpruned grid for atomic number  80.
 Defaulting to unpruned grid for atomic number  80.
 Defaulting to unpruned grid for atomic number  80.
 Defaulting to unpruned grid for atomic number  80.
 Defaulting to unpruned grid for atomic number  80.
 Defaulting to unpruned grid for atomic number  80.
 Defaulting to unpruned grid for atomic number  80.
 Defaulting to unpruned grid for atomic number  80.
 Defaulting to unpruned grid for atomic number  80.
 Defaulting to unpruned grid for atomic number  80.
 Defaulting to unpruned grid for atomic number  80.
 Defaulting to unpruned grid for atomic number  80.
 Defaulting to unpruned grid for atomic number  80.
 Defaulting to unpruned grid for atomic number  80.
 Defaulting to unpruned grid for atomic number  80.
 Defaulting to unpruned grid for atomic number  80.
 Defaulting to unpruned grid for atomic number  80.
 Defaulting to unpruned grid for atomic number  80.
 Defaulting to unpruned grid for atomic number  80.
 ***** Axes restored to original set *****
 -------------------------------------------------------------------
 Center     Atomic                   Forces (Hartrees/Bohr)
 Number     Number              X              Y              Z
 -------------------------------------------------------------------
      1        6          -0.005815237    0.004604493    0.001579697
      2       80           0.006456021   -0.009109187   -0.002362006
      3        1           0.000458748    0.000650057    0.000170655
      4        1           0.000436189    0.000706116   -0.000106237
      5        1          -0.000709179   -0.002182119   -0.000216546
      6       17          -0.000826542    0.005330640    0.000934437
 -------------------------------------------------------------------
 Cartesian Forces:  Max     0.009109187 RMS     0.003530787

 GradGradGradGradGradGradGradGradGradGradGradGradGradGradGradGradGradGrad
 Berny optimization.
 Using GEDIIS/GDIIS optimizer.
 FormGI is forming the generalized inverse of G from B-inverse, IUseBI=4.
 Internal  Forces:  Max     0.020842467 RMS     0.005216313
 Search for a local minimum.
 Step number   3 out of a maximum of   27
 All quantities printed in internal units (Hartrees-Bohrs-Radians)
 Mixed Optimization -- RFO/linear search
 Update second derivatives using D2CorX and points    1    3    2
 DE=  2.04D-03 DEPred=-1.68D-04 R=-1.21D+01
 Trust test=-1.21D+01 RLast= 2.11D-01 DXMaxT set to 2.16D-01
 The second derivative matrix:
                          R1        R2        R3        R4        R5
           R1           0.14742
           R2          -0.00319   0.34562
           R3          -0.00320   0.00032   0.34561
           R4          -0.00319   0.00033   0.00032   0.34563
           R5           0.03856   0.00122   0.00125   0.00119   0.09187
           A1          -0.01144   0.00092   0.00091   0.00092   0.00850
           A2          -0.01013   0.00066   0.00066   0.00066   0.00920
           A3          -0.00798  -0.00009  -0.00009  -0.00006   0.01659
           A4           0.01237  -0.00118  -0.00117  -0.00119  -0.00698
           A5           0.00866  -0.00021  -0.00021  -0.00023  -0.01311
           A6           0.00773  -0.00006  -0.00005  -0.00007  -0.01329
           A7           0.00774   0.00007   0.00008  -0.00007  -0.02231
           A8          -0.00002  -0.00002  -0.00002  -0.00002   0.00021
           D1           0.00558  -0.00092  -0.00092  -0.00094   0.00106
           D2          -0.00362   0.00076   0.00076   0.00076  -0.00326
           D3           0.00521  -0.00102  -0.00102  -0.00103   0.00350
           D4           0.00882  -0.00178  -0.00178  -0.00179   0.00676
                          A1        A2        A3        A4        A5
           A1           0.15632
           A2          -0.00358   0.15661
           A3          -0.00413  -0.00451   0.15923
           A4           0.00358   0.00357   0.00381   0.15656
           A5           0.00381   0.00389   0.00260  -0.00365   0.15680
           A6           0.00369   0.00371   0.00274  -0.00357  -0.00318
           A7           0.00375   0.00664  -0.01467  -0.00202   0.00392
           A8          -0.00004  -0.00003  -0.00008   0.00004   0.00005
           D1           0.00071   0.00107  -0.00084  -0.00045  -0.00013
           D2          -0.00014  -0.00020  -0.00038   0.00007   0.00030
           D3           0.00035   0.00051   0.00016  -0.00021  -0.00035
           D4           0.00049   0.00071   0.00055  -0.00028  -0.00065
                          A6        A7        A8        D1        D2
           A6           0.15688
           A7           0.00232   0.09865
           A8           0.00005   0.00029   0.00230
           D1          -0.00033   0.00948   0.00004   0.00346
           D2           0.00033   0.00012  -0.00001  -0.00019   0.00247
           D3          -0.00044   0.00253   0.00002   0.00051  -0.00022
           D4          -0.00077   0.00241   0.00002   0.00069  -0.00038
                          D3        D4
           D3           0.00266
           D4           0.00057   0.00326
 ITU= -1  1  0
 Use linear search instead of GDIIS.
     Eigenvalues ---    0.00230   0.03317   0.05332   0.07187   0.08690
     Eigenvalues ---    0.10892   0.15982   0.16393   0.17328   0.34530
     Eigenvalues ---    0.34530   0.34644
 RFO step:  Lambda=-5.42004169D-04 EMin= 2.29782430D-03
 Quartic linear search produced a step of -0.93200.
 Iteration  1 RMS(Cart)=  0.10652041 RMS(Int)=  0.01079376
 Iteration  2 RMS(Cart)=  0.01705652 RMS(Int)=  0.00017762
 Iteration  3 RMS(Cart)=  0.00020369 RMS(Int)=  0.00005828
 Iteration  4 RMS(Cart)=  0.00000002 RMS(Int)=  0.00005828
 Variable       Old X    -DE/DX   Delta X   Delta X   Delta X     New X
                                 (Linear)    (Quad)   (Total)
    R1        3.92849   0.00078  -0.01233   0.04366   0.03133   3.95983
    R2        2.07457  -0.00019  -0.00055   0.00065   0.00009   2.07466
    R3        2.07457  -0.00020  -0.00056   0.00066   0.00010   2.07468
    R4        2.07456  -0.00017  -0.00054   0.00062   0.00008   2.07464
    R5        4.33188   0.00261   0.03258  -0.08249  -0.04991   4.28197
    A1        1.90119  -0.00094  -0.00546   0.01525   0.00983   1.91103
    A2        1.90123  -0.00143  -0.00569   0.01595   0.01029   1.91152
    A3        1.90013   0.00355  -0.00490   0.01639   0.01148   1.91161
    A4        1.92024   0.00071   0.00505  -0.01486  -0.00996   1.91028
    A5        1.92035  -0.00106   0.00528  -0.01584  -0.01065   1.90970
    A6        1.92035  -0.00079   0.00530  -0.01589  -0.01068   1.90967
    A7        3.34321  -0.02084  -0.19257  -0.03340  -0.22597   3.11724
    A8        3.14788  -0.00005  -0.00673   0.01484   0.00810   3.15599
    D1        2.08291  -0.00161  -0.00714   0.01947   0.01228   2.09520
    D2       -2.08231  -0.00038   0.00652  -0.01915  -0.01259  -2.09490
    D3        2.08236  -0.00006  -0.00679   0.01997   0.01313   2.09549
    D4       -2.11852   0.00032  -0.01331   0.03912   0.02572  -2.09280
         Item               Value     Threshold  Converged?
 Maximum Force            0.020842     0.000450     NO 
 RMS     Force            0.005216     0.000300     NO 
 Maximum Displacement     0.278600     0.001800     NO 
 RMS     Displacement     0.118584     0.001200     NO 
 Predicted change in Energy=-2.801441D-04
 GradGradGradGradGradGradGradGradGradGradGradGradGradGradGradGradGradGrad

                          Input orientation:                          
 ---------------------------------------------------------------------
 Center     Atomic      Atomic             Coordinates (Angstroms)
 Number     Number       Type             X           Y           Z
 ---------------------------------------------------------------------
      1          6           0       -4.849870    1.608618   -0.000116
      2         80           0       -3.353646    3.075664    0.000768
      3          1           0       -4.629557    0.860168    0.772277
      4          1           0       -4.884473    1.120481   -0.982891
      5          1           0       -5.821233    2.075023    0.210120
      6         17           0       -1.775871    4.702015   -0.000159
 ---------------------------------------------------------------------
                    Distance matrix (angstroms):
                    1          2          3          4          5
     1  C    0.000000
     2  Hg   2.095450   0.000000
     3  H    1.097864   2.670505   0.000000
     4  H    1.097872   2.670909   1.792585   0.000000
     5  H    1.097852   2.670973   1.792201   1.792190   0.000000
     6  Cl   4.361029   2.265920   4.847677   4.843197   4.828070
                    6
     6  Cl   0.000000
 Stoichiometry    CH3ClHg
 Framework group  C1[X(CH3ClHg)]
 Deg. of freedom    12
 Full point group                 C1      NOp   1
 Largest Abelian subgroup         C1      NOp   1
 Largest concise Abelian subgroup C1      NOp   1
                         Standard orientation:                         
 ---------------------------------------------------------------------
 Center     Atomic      Atomic             Coordinates (Angstroms)
 Number     Number       Type             X           Y           Z
 ---------------------------------------------------------------------
      1          6           0        2.270302   -0.026928    0.000438
      2         80           0        0.175116    0.006314   -0.000109
      3          1           0        2.647947    0.693494    0.737786
      4          1           0        2.641749    0.242142   -0.997035
      5          1           0        2.621267   -1.033964    0.261170
      6         17           0       -2.090709   -0.014423    0.000246
 ---------------------------------------------------------------------
 Rotational constants (GHZ):         154.8546379           2.0753511           2.0751365
 Standard basis: def2SVP (5D, 7F)
 There are    86 symmetry adapted cartesian basis functions of A   symmetry.
 There are    79 symmetry adapted basis functions of A   symmetry.
    79 basis functions,   148 primitive gaussians,    86 cartesian basis functions
    23 alpha electrons       23 beta electrons
       nuclear repulsion energy       149.1104166361 Hartrees.
 NAtoms=    6 NActive=    6 NUniq=    6 SFac= 1.00D+00 NAtFMM=   60 NAOKFM=F Big=F
 Integral buffers will be    131072 words long.
 Raffenetti 2 integral format.
 Two-electron integral symmetry is turned on.
 R6APFD:  NTU= -4 IXU= 1 FactS= 1.050
 Nuclear repulsion after empirical dispersion term =      149.0882640611 Hartrees.
 One-electron integrals computed using PRISM.
 PrsmSu:  requested number of processors reduced to:  13 ShMem   1 Linda.
   1 Symmetry operations used in ECPInt.
 ECPInt:  NShTT=     630 NPrTT=    2138 LenC2=     623 LenP2D=    1806.
 LDataN:  DoStor=T MaxTD1= 8 Len=  415
 NBasis=    79 RedAO= T EigKep=  8.38D-03  NBF=    79
 NBsUse=    79 1.00D-06 EigRej= -1.00D+00 NBFU=    79
 Defaulting to unpruned grid for atomic number  80.
 Lowest energy guess from the checkpoint file:  "ch3hgcl_gas_apfd_def2svp.chk"
 B after Tr=     0.000000    0.000000   -0.000000
         Rot=    0.988570    0.150764   -0.000022    0.000062 Ang=  17.34 deg.
 B after Tr=     0.000000   -0.000000    0.000000
         Rot=    1.000000   -0.000000    0.000000    0.000000 Ang=   0.00 deg.
 Keep R1 ints in memory in canonical form, NReq=26805742.
 Requested convergence on RMS density matrix=1.00D-08 within 128 cycles.
 Requested convergence on MAX density matrix=1.00D-06.
 Requested convergence on             energy=1.00D-06.
 No special actions if energy rises.
 Integral accuracy reduced to 1.0D-05 until final iterations.
 Defaulting to unpruned grid for atomic number  80.
 Defaulting to unpruned grid for atomic number  80.
 Defaulting to unpruned grid for atomic number  80.
 Defaulting to unpruned grid for atomic number  80.
 Defaulting to unpruned grid for atomic number  80.
 Defaulting to unpruned grid for atomic number  80.
 Defaulting to unpruned grid for atomic number  80.
 Defaulting to unpruned grid for atomic number  80.
 Defaulting to unpruned grid for atomic number  80.
 Defaulting to unpruned grid for atomic number  80.
 Defaulting to unpruned grid for atomic number  80.
 Defaulting to unpruned grid for atomic number  80.
 Defaulting to unpruned grid for atomic number  80.
 Defaulting to unpruned grid for atomic number  80.
 Defaulting to unpruned grid for atomic number  80.
 Defaulting to unpruned grid for atomic number  80.
 Defaulting to unpruned grid for atomic number  80.
 Defaulting to unpruned grid for atomic number  80.
 Defaulting to unpruned grid for atomic number  80.
 Defaulting to unpruned grid for atomic number  80.
 Defaulting to unpruned grid for atomic number  80.
 Defaulting to unpruned grid for atomic number  80.
 Defaulting to unpruned grid for atomic number  80.
 Defaulting to unpruned grid for atomic number  80.
 Initial convergence to 1.0D-05 achieved.  Increase integral accuracy.
 SCF Done:  E(RAPFD) =  -653.369594117     A.U. after   11 cycles
            NFock= 11  Conv=0.51D-08     -V/T= 2.1892
 R6APFD:  NTU= -4 IXU= 1 FactS= 1.050
 PrsmSu:  requested number of processors reduced to:  13 ShMem   1 Linda.
   1 Symmetry operations used in ECPInt.
 ECPInt:  NShTT=     630 NPrTT=    2138 LenC2=     623 LenP2D=    1806.
 LDataN:  DoStor=T MaxTD1= 9 Len=  602
 Calling FoFJK, ICntrl=      2127 FMM=F ISym2X=0 I1Cent= 0 IOpClX= 0 NMat=1 NMatS=1 NMatT=0.
 Defaulting to unpruned grid for atomic number  80.
 Defaulting to unpruned grid for atomic number  80.
 Defaulting to unpruned grid for atomic number  80.
 Defaulting to unpruned grid for atomic number  80.
 Defaulting to unpruned grid for atomic number  80.
 Defaulting to unpruned grid for atomic number  80.
 Defaulting to unpruned grid for atomic number  80.
 Defaulting to unpruned grid for atomic number  80.
 Defaulting to unpruned grid for atomic number  80.
 Defaulting to unpruned grid for atomic number  80.
 Defaulting to unpruned grid for atomic number  80.
 Defaulting to unpruned grid for atomic number  80.
 Defaulting to unpruned grid for atomic number  80.
 Defaulting to unpruned grid for atomic number  80.
 Defaulting to unpruned grid for atomic number  80.
 Defaulting to unpruned grid for atomic number  80.
 Defaulting to unpruned grid for atomic number  80.
 Defaulting to unpruned grid for atomic number  80.
 Defaulting to unpruned grid for atomic number  80.
 Defaulting to unpruned grid for atomic number  80.
 Defaulting to unpruned grid for atomic number  80.
 Defaulting to unpruned grid for atomic number  80.
 Defaulting to unpruned grid for atomic number  80.
 Defaulting to unpruned grid for atomic number  80.
 ***** Axes restored to original set *****
 -------------------------------------------------------------------
 Center     Atomic                   Forces (Hartrees/Bohr)
 Number     Number              X              Y              Z
 -------------------------------------------------------------------
      1        6           0.003413882    0.002023214    0.000046211
      2       80          -0.012867206   -0.010860506   -0.000060053
      3        1           0.000635155    0.000323494    0.000169887
      4        1           0.000676632    0.000457928   -0.000270271
      5        1           0.000500583    0.001084409    0.000096059
      6       17           0.007640954    0.006971460    0.000018168
 -------------------------------------------------------------------
 Cartesian Forces:  Max     0.012867206 RMS     0.004766599

 GradGradGradGradGradGradGradGradGradGradGradGradGradGradGradGradGradGrad
 Berny optimization.
 Using GEDIIS/GDIIS optimizer.
 FormGI is forming the generalized inverse of G from B-inverse, IUseBI=4.
 Internal  Forces:  Max     0.010324175 RMS     0.003051844
 Search for a local minimum.
 Step number   4 out of a maximum of   27
 All quantities printed in internal units (Hartrees-Bohrs-Radians)
 Mixed Optimization -- RFO/linear search
 Update second derivatives using D2CorX and points    1    3    4    2
 DE=  3.57D-04 DEPred=-2.80D-04 R=-1.27D+00
 Trust test=-1.27D+00 RLast= 1.19D-01 DXMaxT set to 1.08D-01
 The second derivative matrix:
                          R1        R2        R3        R4        R5
           R1           0.17378
           R2          -0.00223   0.34540
           R3          -0.00219   0.00010   0.34539
           R4          -0.00227   0.00010   0.00010   0.34540
           R5          -0.01711   0.00238   0.00233   0.00242   0.16943
           A1          -0.01545   0.00118   0.00117   0.00119   0.01265
           A2          -0.01276   0.00089   0.00089   0.00090   0.01139
           A3          -0.00569   0.00020   0.00020   0.00023   0.00967
           A4           0.01747  -0.00139  -0.00138  -0.00141  -0.01361
           A5           0.00873  -0.00048  -0.00048  -0.00050  -0.01045
           A6           0.00686  -0.00030  -0.00030  -0.00032  -0.00930
           A7          -0.00196  -0.00040  -0.00039  -0.00051   0.00017
           A8           0.00124  -0.00003  -0.00003  -0.00003  -0.00179
           D1           0.00858  -0.00102  -0.00102  -0.00104  -0.00280
           D2          -0.00666   0.00076   0.00075   0.00076   0.00201
           D3           0.00964  -0.00105  -0.00105  -0.00106  -0.00370
           D4           0.01630  -0.00181  -0.00180  -0.00183  -0.00571
                          A1        A2        A3        A4        A5
           A1           0.15487
           A2          -0.00511   0.15507
           A3          -0.00550  -0.00570   0.15897
           A4           0.00515   0.00524   0.00543   0.15490
           A5           0.00520   0.00520   0.00328  -0.00524   0.15586
           A6           0.00509   0.00499   0.00328  -0.00519  -0.00403
           A7           0.00286   0.00539  -0.01704  -0.00128   0.00570
           A8          -0.00002   0.00004   0.00013   0.00005  -0.00009
           D1           0.00062   0.00110  -0.00046  -0.00028  -0.00034
           D2          -0.00023  -0.00040  -0.00093   0.00010   0.00067
           D3           0.00044   0.00077   0.00091  -0.00020  -0.00085
           D4           0.00066   0.00117   0.00184  -0.00029  -0.00152
                          A6        A7        A8        D1        D2
           A6           0.15613
           A7           0.00429   0.10106
           A8          -0.00012  -0.00001   0.00234
           D1          -0.00061   0.00890   0.00013   0.00371
           D2           0.00077   0.00068  -0.00010  -0.00042   0.00267
           D3          -0.00104   0.00168   0.00015   0.00085  -0.00053
           D4          -0.00181   0.00100   0.00024   0.00127  -0.00090
                          D3        D4
           D3           0.00312
           D4           0.00134   0.00454
 ITU= -1 -1  1  0
 Use linear search instead of GDIIS.
 Energy rises -- skip Quadratic/GDIIS search.
 Quartic linear search produced a step of -0.68718.
 Iteration  1 RMS(Cart)=  0.01437881 RMS(Int)=  0.00009566
 Iteration  2 RMS(Cart)=  0.00010288 RMS(Int)=  0.00004139
 Iteration  3 RMS(Cart)=  0.00000001 RMS(Int)=  0.00004139
 Variable       Old X    -DE/DX   Delta X   Delta X   Delta X     New X
                                 (Linear)    (Quad)   (Total)
    R1        3.95983  -0.00645  -0.03062   0.00000  -0.03062   3.92921
    R2        2.07466   0.00003  -0.00047   0.00000  -0.00047   2.07419
    R3        2.07468   0.00002  -0.00048   0.00000  -0.00048   2.07419
    R4        2.07464   0.00003  -0.00045   0.00000  -0.00045   2.07419
    R5        4.28197   0.01032   0.05832   0.00000   0.05832   4.34029
    A1        1.91103  -0.00003  -0.01079   0.00000  -0.01082   1.90021
    A2        1.91152  -0.00022  -0.01127   0.00000  -0.01129   1.90023
    A3        1.91161  -0.00108  -0.01150   0.00000  -0.01150   1.90011
    A4        1.91028  -0.00004   0.01056   0.00000   0.01067   1.92095
    A5        1.90970   0.00063   0.01121   0.00000   0.01128   1.92098
    A6        1.90967   0.00074   0.01125   0.00000   0.01131   1.92098
    A7        3.11724   0.00263   0.01330   0.00000   0.01330   3.13053
    A8        3.15599  -0.00025  -0.01053   0.00000  -0.01053   3.14545
    D1        2.09520  -0.00020  -0.01371   0.00000  -0.01368   2.08152
    D2       -2.09490   0.00031   0.01346   0.00000   0.01343  -2.08147
    D3        2.09549  -0.00047  -0.01403   0.00000  -0.01399   2.08150
    D4       -2.09280  -0.00079  -0.02749   0.00000  -0.02742  -2.12022
         Item               Value     Threshold  Converged?
 Maximum Force            0.010324     0.000450     NO 
 RMS     Force            0.003052     0.000300     NO 
 Maximum Displacement     0.044628     0.001800     NO 
 RMS     Displacement     0.014404     0.001200     NO 
 Predicted change in Energy=-1.027270D-04
 GradGradGradGradGradGradGradGradGradGradGradGradGradGradGradGradGradGrad

                          Input orientation:                          
 ---------------------------------------------------------------------
 Center     Atomic      Atomic             Coordinates (Angstroms)
 Number     Number       Type             X           Y           Z
 ---------------------------------------------------------------------
      1          6           0       -4.854220    1.604986   -0.000093
      2         80           0       -3.377262    3.068494   -0.000529
      3          1           0       -4.619768    0.864163    0.775130
      4          1           0       -4.877379    1.123586   -0.986237
      5          1           0       -5.822129    2.077550    0.211073
      6         17           0       -1.763891    4.703192    0.000656
 ---------------------------------------------------------------------
                    Distance matrix (angstroms):
                    1          2          3          4          5
     1  C    0.000000
     2  Hg   2.079246   0.000000
     3  H    1.097615   2.646610   0.000000
     4  H    1.097617   2.646629   1.798910   0.000000
     5  H    1.097613   2.646530   1.798928   1.798930   0.000000
     6  Cl   4.375959   2.296781   4.847060   4.845756   4.838136
                    6
     6  Cl   0.000000
 Stoichiometry    CH3ClHg
 Framework group  C1[X(CH3ClHg)]
 Deg. of freedom    12
 Full point group                 C1      NOp   1
 Largest Abelian subgroup         C1      NOp   1
 Largest concise Abelian subgroup C1      NOp   1
                         Standard orientation:                         
 ---------------------------------------------------------------------
 Center     Atomic      Atomic             Coordinates (Angstroms)
 Number     Number       Type             X           Y           Z
 ---------------------------------------------------------------------
      1          6           0        2.260958   -0.012137   -0.000037
      2         80           0        0.181766    0.002806    0.000008
      3          1           0        2.620607    0.622291    0.820275
      4          1           0        2.618829    0.377204   -0.961860
      5          1           0        2.608518   -1.043608    0.141470
      6         17           0       -2.114997   -0.006327   -0.000019
 ---------------------------------------------------------------------
 Rotational constants (GHZ):         154.7111738           2.0482127           2.0481696
 Standard basis: def2SVP (5D, 7F)
 There are    86 symmetry adapted cartesian basis functions of A   symmetry.
 There are    79 symmetry adapted basis functions of A   symmetry.
    79 basis functions,   148 primitive gaussians,    86 cartesian basis functions
    23 alpha electrons       23 beta electrons
       nuclear repulsion energy       148.3402689818 Hartrees.
 NAtoms=    6 NActive=    6 NUniq=    6 SFac= 1.00D+00 NAtFMM=   60 NAOKFM=F Big=F
 Integral buffers will be    131072 words long.
 Raffenetti 2 integral format.
 Two-electron integral symmetry is turned on.
 R6APFD:  NTU= -4 IXU= 1 FactS= 1.050
 Nuclear repulsion after empirical dispersion term =      148.3184694230 Hartrees.
 One-electron integrals computed using PRISM.
 PrsmSu:  requested number of processors reduced to:  13 ShMem   1 Linda.
   1 Symmetry operations used in ECPInt.
 ECPInt:  NShTT=     630 NPrTT=    2138 LenC2=     623 LenP2D=    1805.
 LDataN:  DoStor=T MaxTD1= 8 Len=  415
 NBasis=    79 RedAO= T EigKep=  8.41D-03  NBF=    79
 NBsUse=    79 1.00D-06 EigRej= -1.00D+00 NBFU=    79
 Defaulting to unpruned grid for atomic number  80.
 Lowest energy guess from the checkpoint file:  "ch3hgcl_gas_apfd_def2svp.chk"
 B after Tr=    -0.000000    0.000000    0.000000
         Rot=    0.995725    0.092363   -0.000011    0.000032 Ang=  10.60 deg.
 B after Tr=     0.000000    0.000000    0.000000
         Rot=    1.000000    0.000000   -0.000000    0.000000 Ang=   0.00 deg.
 Keep R1 ints in memory in canonical form, NReq=26805742.
 Requested convergence on RMS density matrix=1.00D-08 within 128 cycles.
 Requested convergence on MAX density matrix=1.00D-06.
 Requested convergence on             energy=1.00D-06.
 No special actions if energy rises.
 Integral accuracy reduced to 1.0D-05 until final iterations.
 Defaulting to unpruned grid for atomic number  80.
 Defaulting to unpruned grid for atomic number  80.
 Defaulting to unpruned grid for atomic number  80.
 Defaulting to unpruned grid for atomic number  80.
 Defaulting to unpruned grid for atomic number  80.
 Defaulting to unpruned grid for atomic number  80.
 Defaulting to unpruned grid for atomic number  80.
 Defaulting to unpruned grid for atomic number  80.
 Defaulting to unpruned grid for atomic number  80.
 Defaulting to unpruned grid for atomic number  80.
 Defaulting to unpruned grid for atomic number  80.
 Defaulting to unpruned grid for atomic number  80.
 Defaulting to unpruned grid for atomic number  80.
 Defaulting to unpruned grid for atomic number  80.
 Defaulting to unpruned grid for atomic number  80.
 Defaulting to unpruned grid for atomic number  80.
 Defaulting to unpruned grid for atomic number  80.
 Defaulting to unpruned grid for atomic number  80.
 Defaulting to unpruned grid for atomic number  80.
 Defaulting to unpruned grid for atomic number  80.
 Defaulting to unpruned grid for atomic number  80.
 Defaulting to unpruned grid for atomic number  80.
 Defaulting to unpruned grid for atomic number  80.
 Defaulting to unpruned grid for atomic number  80.
 Initial convergence to 1.0D-05 achieved.  Increase integral accuracy.
 SCF Done:  E(RAPFD) =  -653.370039320     A.U. after   10 cycles
            NFock= 10  Conv=0.61D-08     -V/T= 2.1893
 R6APFD:  NTU= -4 IXU= 1 FactS= 1.050
 PrsmSu:  requested number of processors reduced to:  13 ShMem   1 Linda.
   1 Symmetry operations used in ECPInt.
 ECPInt:  NShTT=     630 NPrTT=    2138 LenC2=     623 LenP2D=    1805.
 LDataN:  DoStor=T MaxTD1= 9 Len=  602
 Calling FoFJK, ICntrl=      2127 FMM=F ISym2X=0 I1Cent= 0 IOpClX= 0 NMat=1 NMatS=1 NMatT=0.
 Defaulting to unpruned grid for atomic number  80.
 Defaulting to unpruned grid for atomic number  80.
 Defaulting to unpruned grid for atomic number  80.
 Defaulting to unpruned grid for atomic number  80.
 Defaulting to unpruned grid for atomic number  80.
 Defaulting to unpruned grid for atomic number  80.
 Defaulting to unpruned grid for atomic number  80.
 Defaulting to unpruned grid for atomic number  80.
 Defaulting to unpruned grid for atomic number  80.
 Defaulting to unpruned grid for atomic number  80.
 Defaulting to unpruned grid for atomic number  80.
 Defaulting to unpruned grid for atomic number  80.
 Defaulting to unpruned grid for atomic number  80.
 Defaulting to unpruned grid for atomic number  80.
 Defaulting to unpruned grid for atomic number  80.
 Defaulting to unpruned grid for atomic number  80.
 Defaulting to unpruned grid for atomic number  80.
 Defaulting to unpruned grid for atomic number  80.
 Defaulting to unpruned grid for atomic number  80.
 Defaulting to unpruned grid for atomic number  80.
 Defaulting to unpruned grid for atomic number  80.
 Defaulting to unpruned grid for atomic number  80.
 Defaulting to unpruned grid for atomic number  80.
 Defaulting to unpruned grid for atomic number  80.
 ***** Axes restored to original set *****
 -------------------------------------------------------------------
 Center     Atomic                   Forces (Hartrees/Bohr)
 Number     Number              X              Y              Z
 -------------------------------------------------------------------
      1        6           0.001054017    0.000450759   -0.000028390
      2       80          -0.000602620    0.000316687    0.000040468
      3        1          -0.000344585   -0.000173771   -0.000142281
      4        1          -0.000275696   -0.000204223    0.000172421
      5        1          -0.000053810   -0.000231352   -0.000024842
      6       17           0.000222695   -0.000158100   -0.000017376
 -------------------------------------------------------------------
 Cartesian Forces:  Max     0.001054017 RMS     0.000351866

 GradGradGradGradGradGradGradGradGradGradGradGradGradGradGradGradGradGrad
 Berny optimization.
 Using GEDIIS/GDIIS optimizer.
 FormGI is forming the generalized inverse of G from B-inverse, IUseBI=4.
 Internal  Forces:  Max     0.001158670 RMS     0.000313757
 Search for a local minimum.
 Step number   5 out of a maximum of   27
 All quantities printed in internal units (Hartrees-Bohrs-Radians)
 Mixed Optimization -- En-DIIS/RFO-DIIS
 Update second derivatives using D2CorX and points    1    3    4    2    5
 The second derivative matrix:
                          R1        R2        R3        R4        R5
           R1           0.18816
           R2          -0.00400   0.34576
           R3          -0.00394   0.00046   0.34575
           R4          -0.00405   0.00047   0.00046   0.34577
           R5          -0.01162   0.00117   0.00111   0.00120   0.16095
           A1          -0.01770   0.00164   0.00163   0.00165   0.01065
           A2          -0.01463   0.00129   0.00128   0.00129   0.00978
           A3          -0.00558   0.00036   0.00036   0.00038   0.00941
           A4           0.02040  -0.00199  -0.00198  -0.00200  -0.01089
           A5           0.00945  -0.00074  -0.00073  -0.00075  -0.00950
           A6           0.00730  -0.00051  -0.00051  -0.00052  -0.00866
           A7          -0.00598  -0.00006  -0.00007  -0.00018  -0.00268
           A8           0.00158  -0.00008  -0.00008  -0.00008  -0.00146
           D1           0.00964  -0.00123  -0.00122  -0.00124  -0.00186
           D2          -0.00807   0.00098   0.00097   0.00099   0.00104
           D3           0.01152  -0.00135  -0.00134  -0.00137  -0.00236
           D4           0.01959  -0.00234  -0.00232  -0.00235  -0.00339
                          A1        A2        A3        A4        A5
           A1           0.15480
           A2          -0.00517   0.15504
           A3          -0.00611  -0.00625   0.15833
           A4           0.00523   0.00531   0.00616   0.15481
           A5           0.00554   0.00550   0.00383  -0.00564   0.15545
           A6           0.00541   0.00528   0.00378  -0.00558  -0.00441
           A7           0.00488   0.00728  -0.01625  -0.00367   0.00449
           A8          -0.00002   0.00004   0.00020   0.00005  -0.00012
           D1           0.00069   0.00117  -0.00025  -0.00034  -0.00048
           D2          -0.00013  -0.00032  -0.00109  -0.00004   0.00072
           D3           0.00035   0.00070   0.00117  -0.00008  -0.00096
           D4           0.00048   0.00102   0.00226  -0.00005  -0.00168
                          A6        A7        A8        D1        D2
           A6           0.15579
           A7           0.00321   0.10388
           A8          -0.00015  -0.00021   0.00234
           D1          -0.00075   0.00850   0.00012   0.00372
           D2           0.00083   0.00142  -0.00011  -0.00046   0.00278
           D3          -0.00115   0.00072   0.00016   0.00089  -0.00065
           D4          -0.00199  -0.00070   0.00028   0.00135  -0.00113
                          D3        D4
           D3           0.00326
           D4           0.00161   0.00504
 ITU=  0 -1 -1  1  0
 Use linear search instead of GDIIS.
     Eigenvalues ---    0.00231   0.04773   0.05497   0.08181   0.10549
     Eigenvalues ---    0.15336   0.16032   0.17112   0.19247   0.34530
     Eigenvalues ---    0.34530   0.34704
 RFO step:  Lambda=-1.98343477D-05 EMin= 2.30868822D-03
 Quartic linear search produced a step of -0.00030.
 Iteration  1 RMS(Cart)=  0.00823316 RMS(Int)=  0.00012287
 Iteration  2 RMS(Cart)=  0.00020036 RMS(Int)=  0.00000426
 Iteration  3 RMS(Cart)=  0.00000005 RMS(Int)=  0.00000426
 Variable       Old X    -DE/DX   Delta X   Delta X   Delta X     New X
                                 (Linear)    (Quad)   (Total)
    R1        3.92921  -0.00016  -0.00000  -0.00043  -0.00043   3.92877
[...]
     6  17    -0.00  -0.00   0.00     0.00  -0.00   0.00    -0.00  -0.00  -0.00

 -------------------
 - Thermochemistry -
 -------------------
 Temperature   298.150 Kelvin.  Pressure   1.00000 Atm.
 Atom     1 has atomic number  6 and mass  12.00000
 Atom     2 has atomic number 80 and mass 201.97060
 Atom     3 has atomic number  1 and mass   1.00783
 Atom     4 has atomic number  1 and mass   1.00783
 Atom     5 has atomic number  1 and mass   1.00783
 Atom     6 has atomic number 17 and mass  34.96885
 Molecular mass:   251.96293 amu.
 Principal axes and moments of inertia in atomic units:
                           1         2         3
     Eigenvalues --    11.61950 881.21794 881.21822
           X            1.00000  -0.00004   0.00001
           Y            0.00004   0.99823   0.05947
           Z           -0.00002  -0.05947   0.99823
 This molecule is an asymmetric top.
 Rotational symmetry number  1.
 Rotational temperatures (Kelvin)      7.45419     0.09829     0.09829
 Rotational constants (GHZ):         155.32004     2.04801     2.04801
 Zero-point vibrational energy      98031.0 (Joules/Mol)
                                   23.42997 (Kcal/Mol)
 Warning -- explicit consideration of   4 degrees of freedom as
           vibrations may cause significant error
 Vibrational temperatures:    184.82   184.93   550.07   870.45  1137.96
          (Kelvin)           1138.06  1748.28  2059.25  2059.29  4429.86
                             4608.91  4608.95
 
 Zero-point correction=                           0.037338 (Hartree/Particle)
 Thermal correction to Energy=                    0.042209
 Thermal correction to Enthalpy=                  0.043153
 Thermal correction to Gibbs Free Energy=         0.007947
 Sum of electronic and zero-point Energies=           -653.332712
 Sum of electronic and thermal Energies=              -653.327841
 Sum of electronic and thermal Enthalpies=            -653.326897
 Sum of electronic and thermal Free Energies=         -653.362102
 
                     E (Thermal)             CV                S
                      KCal/Mol        Cal/Mol-Kelvin    Cal/Mol-Kelvin
 Total                   26.486             14.057             74.096
 Electronic               0.000              0.000              0.000
 Translational            0.889              2.981             42.473
 Rotational               0.889              2.981             23.716
 Vibrational             24.709              8.096              7.908
 Vibration     1          0.611              1.925              2.969
 Vibration     2          0.611              1.925              2.968
 Vibration     3          0.752              1.508              1.030
 Vibration     4          0.964              1.021              0.441
                       Q            Log10(Q)             Ln(Q)
 Total Bot       0.221024D-03         -3.655561         -8.417240
 Total V=0       0.330164D+14         13.518729         31.128025
 Vib (Bot)       0.413483D-16        -16.383542        -37.724501
 Vib (Bot)    1  0.158762D+01          0.200747          0.462238
 Vib (Bot)    2  0.158665D+01          0.200480          0.461622
 Vib (Bot)    3  0.472156D+00         -0.325914         -0.750445
 Vib (Bot)    4  0.245543D+00         -0.609873         -1.404283
 Vib (V=0)       0.617658D+01          0.790748          1.820764
 Vib (V=0)    1  0.216450D+01          0.335357          0.772187
 Vib (V=0)    2  0.216356D+01          0.335170          0.771757
 Vib (V=0)    3  0.118770D+01          0.074707          0.172019
 Vib (V=0)    4  0.105704D+01          0.024091          0.055471
 Electronic      0.100000D+01          0.000000          0.000000
 Translational   0.157202D+09          8.196459         18.873044
 Rotational      0.340034D+05          4.531523         10.434217
 ***** Axes restored to original set *****
 -------------------------------------------------------------------
 Center     Atomic                   Forces (Hartrees/Bohr)
 Number     Number              X              Y              Z
 -------------------------------------------------------------------
      1        6           0.000099128    0.000063129    0.000026492
      2       80           0.000026436    0.000074345   -0.000040297
      3        1          -0.000019271   -0.000037072    0.000011644
      4        1          -0.000011241   -0.000024403   -0.000020703
      5        1          -0.000033739    0.000003616    0.000006181
      6       17          -0.000061314   -0.000079616    0.000016683
 -------------------------------------------------------------------
 Cartesian Forces:  Max     0.000099128 RMS     0.000045314
 FormGI is forming the generalized inverse of G from B-inverse, IUseBI=4.

 GradGradGradGradGradGradGradGradGradGradGradGradGradGradGradGradGradGrad
 Berny optimization.
 Internal  Forces:  Max     0.000099659 RMS     0.000031834
 Search for a local minimum.
 Step number   1 out of a maximum of    2
 All quantities printed in internal units (Hartrees-Bohrs-Radians)
 Second derivative matrix not updated -- analytic derivatives used.
 The second derivative matrix:
                          R1        R2        R3        R4        R5
           R1           0.19306
           R2           0.00140   0.35358
           R3           0.00140  -0.00020   0.35358
           R4           0.00140  -0.00020  -0.00020   0.35359
           R5           0.00181   0.00051   0.00050   0.00050   0.16798
           A1           0.00248  -0.00072  -0.00040  -0.00138   0.00068
           A2           0.00388   0.00003  -0.00039  -0.00355   0.00107
           A3           0.00762  -0.00320  -0.00314  -0.00136   0.00210
           A4          -0.00091   0.00347   0.00343  -0.00597  -0.00025
           A5          -0.00605   0.00634  -0.00573   0.00550  -0.00167
           A6          -0.00681  -0.00597   0.00618   0.00667  -0.00187
           A7           0.00001   0.00004   0.00005  -0.00009   0.00002
           A8          -0.00002  -0.00003   0.00003   0.00002  -0.00002
           D1           0.00485   0.00122   0.00134  -0.00746   0.00134
           D2          -0.00404  -0.00098   0.00586  -0.00079  -0.00111
           D3           0.00530  -0.00551   0.00131  -0.00115   0.00146
           D4           0.00934  -0.00453  -0.00454  -0.00036   0.00257
                          A1        A2        A3        A4        A5
           A1           0.01576
           A2          -0.00720   0.02955
           A3          -0.01018  -0.01724   0.05771
           A4          -0.00744  -0.00128   0.02188   0.03538
           A5          -0.01158   0.02111  -0.02937  -0.02143   0.06654
           A6           0.02062  -0.02486  -0.02235  -0.02691  -0.02557
           A7           0.00494   0.00735  -0.01654  -0.00356   0.00452
           A8          -0.00279   0.00371  -0.00049   0.00030   0.00171
           D1           0.01038   0.00848  -0.00980   0.01141  -0.01415
           D2          -0.00607   0.00663  -0.00515   0.00862  -0.00795
           D3          -0.00261   0.01061   0.00074  -0.00439  -0.00753
           D4           0.00346   0.00398   0.00589  -0.01301   0.00041
                          A6        A7        A8        D1        D2
           A6           0.07867
           A7           0.00323   0.10532
           A8          -0.00243  -0.00008   0.01617
           D1          -0.00618   0.00838  -0.00097   0.02473
           D2           0.00385   0.00135   0.00268   0.00182   0.01534
           D3           0.00331   0.00081   0.00277   0.00065   0.00727
           D4          -0.00053  -0.00054   0.00009  -0.00117  -0.00807
                          D3        D4
           D3           0.01541
           D4           0.00814   0.01621
 ITU=  0
     Eigenvalues ---    0.01455   0.03090   0.03539   0.05184   0.09480
     Eigenvalues ---    0.11841   0.12640   0.16797   0.19576   0.35356
     Eigenvalues ---    0.35446   0.35453
 Angle between quadratic step and forces=  52.60 degrees.
 Linear search not attempted -- I Itera Itera Iteration  1 RMS(Cart)=  0.00045385 RMS(Int)=  0.00000041
 Iteration  2 RMS(Cart)=  0.00000051 RMS(Int)=  0.00000005
 Variable       Old X    -DE/DX   Delta X   Delta X   Delta X     New X
                                 (Linear)    (Quad)   (Total)
    R1        3.92731  -0.00003   0.00000  -0.00023  -0.00023   3.92707
    R2        2.07417   0.00003   0.00000   0.00010   0.00010   2.07427
    R3        2.07417   0.00003   0.00000   0.00010   0.00010   2.07427
    R4        2.07416   0.00003   0.00000   0.00011   0.00011   2.07428
    R5        4.34076  -0.00010   0.00000  -0.00062  -0.00062   4.34014
    A1        1.90352   0.00001   0.00000   0.00032   0.00032   1.90384
    A2        1.90356   0.00000   0.00000   0.00028   0.00028   1.90384
    A3        1.90367   0.00000   0.00000   0.00016   0.00016   1.90383
    A4        1.91765  -0.00001   0.00000  -0.00027  -0.00027   1.91738
    A5        1.91762  -0.00001   0.00000  -0.00024  -0.00024   1.91738
    A6        1.91762  -0.00000   0.00000  -0.00024  -0.00024   1.91738
    A7        3.14123   0.00004   0.00000   0.00034   0.00034   3.14158
    A8        3.14357  -0.00003   0.00000  -0.00195  -0.00195   3.14162
    D1        2.08562   0.00002   0.00000   0.00040   0.00040   2.08603
    D2       -2.08567  -0.00001   0.00000  -0.00035  -0.00035  -2.08602
    D3        2.08572   0.00000   0.00000   0.00030   0.00030   2.08602
    D4       -2.11179   0.00002   0.00000   0.00065   0.00065  -2.11114
         Item               Value     Threshold  Converged?
 Maximum Force            0.000100     0.000450     YES
 RMS     Force            0.000032     0.000300     YES
 Maximum Displacement     0.001078     0.001800     YES
 RMS     Displacement     0.000454     0.001200     YES
 Predicted change in Energy=-9.421153D-08
 Optimization completed.
    -- Stationary point found.
                           ----------------------------
                           !   Optimized Parameters   !
                           ! (Angstroms and Degrees)  !
 --------------------------                            --------------------------
 ! Name  Definition              Value          Derivative Info.                !
 --------------------------------------------------------------------------------
 ! R1    R(1,2)                  2.0782         -DE/DX =    0.0                 !
 ! R2    R(1,3)                  1.0976         -DE/DX =    0.0                 !
 ! R3    R(1,4)                  1.0976         -DE/DX =    0.0                 !
 ! R4    R(1,5)                  1.0976         -DE/DX =    0.0                 !
 ! R5    R(2,6)                  2.297          -DE/DX =   -0.0001              !
 ! A1    A(2,1,3)              109.0636         -DE/DX =    0.0                 !
 ! A2    A(2,1,4)              109.0657         -DE/DX =    0.0                 !
 ! A3    A(2,1,5)              109.0723         -DE/DX =    0.0                 !
 ! A4    A(3,1,4)              109.8734         -DE/DX =    0.0                 !
 ! A5    A(3,1,5)              109.8715         -DE/DX =    0.0                 !
 ! A6    A(4,1,5)              109.8717         -DE/DX =    0.0                 !
 ! A7    L(1,2,6,5,-1)         179.9795         -DE/DX =    0.0                 !
 ! A8    L(1,2,6,5,-2)         180.1131         -DE/DX =    0.0                 !
 ! D1    D(2,1,4,3)            119.4975         -DE/DX =    0.0                 !
 ! D2    D(2,1,5,3)           -119.5003         -DE/DX =    0.0                 !
 ! D3    D(2,1,5,4)            119.5031         -DE/DX =    0.0                 !
 ! D4    D(3,1,5,4)           -120.9965         -DE/DX =    0.0                 !
 --------------------------------------------------------------------------------
 GradGradGradGradGradGradGradGradGradGradGradGradGradGradGradGradGradGrad


 ----------------------------------------------------------------------

 Electric dipole moment (input orientation):
 (Debye = 10**-18 statcoulomb cm , SI units = C m)
                  (au)            (Debye)         (10**-30 SI)
   Tot        0.130559D+01      0.331848D+01      0.110693D+02
   x         -0.923149D+00     -0.234641D+01     -0.782678D+01
   y         -0.923237D+00     -0.234663D+01     -0.782753D+01
   z          0.456240D-03      0.115965D-02      0.386816D-02

 Dipole polarizability, Alpha (input orientation).
 (esu units = cm**3 , SI units = C**2 m**2 J**-1)
 Alpha(0;0):
               (au)            (10**-24 esu)      (10**-40 SI)
   iso        0.497339D+02      0.736980D+01      0.820001D+01
   aniso      0.433727D+02      0.642717D+01      0.715119D+01
   xx         0.569710D+02      0.844224D+01      0.939326D+01
   yx         0.216864D+02      0.321359D+01      0.357560D+01
   yy         0.569542D+02      0.843975D+01      0.939049D+01
   zx        -0.129582D-02     -0.192021D-03     -0.213652D-03
   zy        -0.155897D-02     -0.231015D-03     -0.257039D-03
   zz         0.352764D+02      0.522742D+01      0.581629D+01

 ----------------------------------------------------------------------

 Dipole orientation:
     6         -6.10517079          6.10234632          4.33748019
    80         -6.10182045          6.10278437          0.41017617
     1         -4.14854330          6.21445337          5.01662153
     1         -6.98713773          4.35118882          5.01406680
     1         -7.18144326          7.74107583          5.01450209
    17         -6.10177642          6.10272119         -3.93058385

 Electric dipole moment (dipole orientation):
 (Debye = 10**-18 statcoulomb cm , SI units = C m)
                  (au)            (Debye)         (10**-30 SI)
   Tot        0.130559D+01      0.331848D+01      0.110693D+02
   x          0.000000D+00      0.000000D+00      0.000000D+00
   y          0.000000D+00      0.000000D+00      0.000000D+00
   z          0.130559D+01      0.331848D+01      0.110693D+02

 Dipole polarizability, Alpha (dipole orientation).
 (esu units = cm**3 , SI units = C**2 m**2 J**-1)
 Alpha(0;0):
               (au)            (10**-24 esu)      (10**-40 SI)
   iso        0.497339D+02      0.736980D+01      0.820001D+01
   aniso      0.433727D+02      0.642717D+01      0.715119D+01
   xx         0.352765D+02      0.522744D+01      0.581631D+01
   yx         0.666513D-04      0.987670D-05      0.109893D-04
   yy         0.352761D+02      0.522739D+01      0.581625D+01
   zx        -0.166856D-01     -0.247256D-02     -0.275109D-02
   zy        -0.189491D-02     -0.280797D-03     -0.312428D-03
   zz         0.786490D+02      0.116546D+02      0.129675D+02

 ----------------------------------------------------------------------
 1\1\GINC-GRANADO-COMPUTE-1\Freq\RAPFD\def2SVP\C1H3Cl1Hg1\ROOT\25-Aug-2
 022\0\\#N Geom=AllCheck Guess=TCheck SCRF=Check GenChk RAPFD/def2SVP F
 req\\Optimization MeHgCl-apfd-def2svp-gas phase\\0,1\C,-4.8530656132,1
 .6067199339,-0.0000375581\Hg,-3.3828271506,3.0755569495,0.0006537082\H
 ,-4.6188982845,0.8647328679,0.7741441692\H,-4.8765097133,1.1233621606,
 -0.9852029729\H,-5.8247185062,2.0717459657,0.2105988103\Cl,-1.75862973
 22,4.6998521224,-0.0001561567\\Version=EM64L-G16RevA.03\State=1-A\HF=-
 653.3700498\RMSD=3.017e-09\RMSF=4.531e-05\ZeroPoint=0.037338\Thermal=0
 .0422088\Dipole=-0.9231489,-0.9232367,0.0004562\DipoleDeriv=-0.1174241
 ,0.0713525,0.0000651,0.0714567,-0.1175092,0.0000372,0.0000131,-0.00001
 01,-0.1888766,0.8741747,0.4932177,-0.0001196,0.4932996,0.8740407,-0.00
 01098,-0.000209,-0.0001985,0.3808487,0.0246931,-0.073986,0.0177888,-0.
 0347363,-0.0528694,0.074897,-0.0133532,0.0437629,0.0309837,0.0181492,-
 0.0776123,-0.041866,-0.0590661,-0.0182477,-0.0760713,-0.0021804,-0.036
 4326,0.0029312,-0.0921245,-0.0043935,0.0240219,-0.0622585,0.0220319,0.
 0011406,0.0154988,-0.0073488,0.0729336,-0.7074683,-0.4085784,0.0001098
 ,-0.4086955,-0.7074463,0.0001064,0.0002307,0.0002271,-0.2988207\Polar=
 56.9710365,21.6863707,56.954243,-0.0012958,-0.001559,35.2763993\Quadru
 pole=-0.7999272,-0.7998874,1.5998145,-2.399672,0.0010033,0.0010303\PG=
 C01 [X(C1H3Cl1Hg1)]\NImag=0\\0.44760232,-0.09787272,0.44774830,-0.0000
 6391,-0.00005274,0.54554198,-0.10006865,-0.06778230,-0.00003293,0.1997
 5237,-0.06780612,-0.09995958,-0.00003476,0.15773651,0.19960221,-0.0000
 0871,-0.00001206,-0.03221825,0.00000398,0.00000073,0.04194605,-0.04798
 770,0.04326457,-0.03738373,0.00167277,-0.01066674,0.01067397,0.0538377
 1,0.05269677,-0.17432527,0.14505522,0.00182456,-0.00847546,0.00728149,
 -0.04896956,0.18043097,-0.04486432,0.13757557,-0.18881121,0.00076828,-
 0.00262287,0.00156546,0.04803744,-0.14843634,0.19806208,-0.03664074,0.
 00108002,-0.01368761,-0.00183894,-0.00652719,-0.01245353,-0.00131357,-
 0.00354795,-0.00559672,0.03912163,0.00552501,-0.09605747,-0.12306826,-
 0.00064006,-0.00661864,-0.01041065,0.00010751,0.01061283,0.01986059,-0
 .00085405,0.09864409,-0.00416663,-0.11355707,-0.27843423,0.00016068,0.
 00218967,0.00321923,0.00064730,-0.01138728,-0.01550474,0.00484706,0.12
 264446,0.29456773,-0.27090502,0.12206957,0.05115501,-0.00963489,0.0035
 4144,0.00176328,-0.00368770,-0.00003628,0.00225931,0.00254872,-0.00230
 740,-0.00202922,0.28221163,0.10819304,-0.08540346,-0.02191270,-0.01484
 289,0.00532360,0.00311965,0.01710866,-0.00752721,-0.00644021,0.0111506
 4,-0.00555456,-0.00003134,-0.12127908,0.09634874,0.04911317,-0.0239441
 6,-0.05482434,-0.00093732,0.00043008,-0.00092198,-0.02048087,0.0083136
 8,0.00500919,0.02521107,-0.01030497,-0.00320113,-0.05296632,0.02571307
 ,0.05376928,0.00799979,-0.00075914,0.00001316,-0.08988266,-0.07627792,
 0.00002101,-0.00252151,-0.00196753,-0.00060399,-0.00187711,-0.00183101
 ,0.00054082,-0.00053274,-0.00033036,0.00006028,0.08681424,-0.00073598,
 0.00799748,0.00001322,-0.07629582,-0.08987213,0.00002083,-0.00084444,-
 0.00071587,0.00006326,-0.00130147,-0.00102626,0.00014156,-0.00198825,-
 0.00318712,-0.00020770,0.08116596,0.08680389,-0.00000959,-0.00000955,0
 .00874605,0.00003732,0.00003715,-0.01359051,-0.00149411,-0.00082678,-0
 .00032078,0.00167972,0.00127883,-0.00064685,-0.00018206,-0.00044847,0.
 00016898,-0.00003128,-0.00003118,0.00564311\\-0.00009913,-0.00006313,-
 0.00002649,-0.00002644,-0.00007435,0.00004030,0.00001927,0.00003707,-0
 .00001164,0.00001124,0.00002440,0.00002070,0.00003374,-0.00000362,-0.0
 0000618,0.00006131,0.00007962,-0.00001668\\\@


 A MAN THINKING OR WORKING IS ALWAYS ALONE, 
 LET HIM BE WHERE HE WILL.

                                    -- THOREAU
 Job cpu time:       0 days  0 hours 18 minutes 21.1 seconds.
 Elapsed time:       0 days  0 hours 10 minutes 46.5 seconds.
 File lengths (MBytes):  RWF=     10 Int=      0 D2E=      0 Chk=      2 Scr=      1
 Normal termination of Gaussian 16 at Thu Aug 25 07:12:35 2022.
2070,0.00003374,-0.00000362,-0.0
 0000618,0.00006131,0.00007962,-0.00001668\\\@


 DIATOMIC MOLECULES ARE PECULIAR BECAUSE THEY ONLY HAVE TWO ENDS,
 AND THESE ENDS ARE VERY CLOSE TOGETHER.
 KLAUS RUEDENBERG, REV.MOD.PHYS. PG 176, 32, (1960)
 Job cpu time:       0 days  0 hours 18 minutes 11.9 seconds.
 Elapsed time:       0 days  0 hours 10 minutes 43.7 seconds.
 File lengths (MBytes):  RWF=     10 Int=      0 D2E=      0 Chk=      2 Scr=      1
 Normal termination of Gaussian 16 at Thu Aug 25 07:12:34 2022.
ays  0 hours 17 minutes 59.6 seconds.
 Elapsed time:       0 days  0 hours 10 minutes 42.1 seconds.
 File lengths (MBytes):  RWF=    116 Int=      0 D2E=      0 Chk=      2 Scr=      1
 Normal termination of Gaussian 16 at Thu Aug 25 07:12:33 2022.
T ME INDEED TAKE COUNSEL OF MYSELF
 AND SET MY DIRECTIONS STRAIGHT.

                          R.T. WESTON AS ADAPTED BY D. OSBORN 1967
 Job cpu time:       0 days  0 hours 17 minutes 24.0 seconds.
 Elapsed time:       0 days  0 hours 11 minutes  4.2 seconds.
 File lengths (MBytes):  RWF=     10 Int=      0 D2E=      0 Chk=      2 Scr=      1
 Normal termination of Gaussian 16 at Thu Aug 25 07:11:12 2022.
