 Entering Gaussian System, Link 0=g16
 Input=input.gjf
 Output=input.log
 Initial command:
 /opt/ohpc/pub/apps/gaussian/G16x86_64_legacy_CPUs_linux_binary/g16/l1.exe "/tmp/Gau-67052.inp" -scrdir="/tmp/"
 Entering Link 1 = /opt/ohpc/pub/apps/gaussian/G16x86_64_legacy_CPUs_linux_binary/g16/l1.exe PID=     67146.
  
 Copyright (c) 1988,1990,1992,1993,1995,1998,2003,2009,2016,
            Gaussian, Inc.  All Rights Reserved.
  
 This is part of the Gaussian(R) 16 program.  It is based on
 the Gaussian(R) 09 system (copyright 2009, Gaussian, Inc.),
 the Gaussian(R) 03 system (copyright 2003, Gaussian, Inc.),
 the Gaussian(R) 98 system (copyright 1998, Gaussian, Inc.),
 the Gaussian(R) 94 system (copyright 1995, Gaussian, Inc.),
 the Gaussian 92(TM) system (copyright 1992, Gaussian, Inc.),
 the Gaussian 90(TM) system (copyright 1990, Gaussian, Inc.),
 the Gaussian 88(TM) system (copyright 1988, Gaussian, Inc.),
 the Gaussian 86(TM) system (copyright 1986, Carnegie Mellon
 University), and the Gaussian 82(TM) system (copyright 1983,
 Carnegie Mellon University). Gaussian is a federally registered
 trademark of Gaussian, Inc.
  
 This software contains proprietary and confidential information,
 including trade secrets, belonging to Gaussian, Inc.
  
 This software is provided under written license and may be
 used, copied, transmitted, or stored only in accord with that
 written license.
  
 The following legend is applicable only to US Government
 contracts under FAR:
  
                    RESTRICTED RIGHTS LEGEND
  
 Use, reproduction and disclosure by the US Government is
 subject to restrictions as set forth in subparagraphs (a)
 and (c) of the Commercial Computer Software - Restricted
 Rights clause in FAR 52.227-19.
  
 Gaussian, Inc.
 340 Quinnipiac St., Bldg. 40, Wallingford CT 06492
  
  
 ---------------------------------------------------------------
 Warning -- This program may not be used in any manner that
 competes with the business of Gaussian, Inc. or will provide
 assistance to any competitor of Gaussian, Inc.  The licensee
 of this program is prohibited from giving any competitor of
 Gaussian, Inc. access to this program.  By using this program,
 the user acknowledges that Gaussian, Inc. is engaged in the
 business of creating and licensing software in the field of
 computational chemistry and represents and warrants to the
 licensee that it is not a competitor of Gaussian, Inc. and that
 it will not use this program in any manner prohibited above.
 ---------------------------------------------------------------
  

 Cite this work as:
 Gaussian 16, Revision A.03,
 M. J. Frisch, G. W. Trucks, H. B. Schlegel, G. E. Scuseria, 
 M. A. Robb, J. R. Cheeseman, G. Scalmani, V. Barone, 
 G. A. Petersson, H. Nakatsuji, X. Li, M. Caricato, A. V. Marenich, 
 J. Bloino, B. G. Janesko, R. Gomperts, B. Mennucci, H. P. Hratchian, 
 J. V. Ortiz, A. F. Izmaylov, J. L. Sonnenberg, D. Williams-Young, 
 F. Ding, F. Lipparini, F. Egidi, J. Goings, B. Peng, A. Petrone, 
 T. Henderson, D. Ranasinghe, V. G. Zakrzewski, J. Gao, N. Rega, 
 G. Zheng, W. Liang, M. Hada, M. Ehara, K. Toyota, R. Fukuda, 
 J. Hasegawa, M. Ishida, T. Nakajima, Y. Honda, O. Kitao, H. Nakai, 
 T. Vreven, K. Throssell, J. A. Montgomery, Jr., J. E. Peralta, 
 F. Ogliaro, M. J. Bearpark, J. J. Heyd, E. N. Brothers, K. N. Kudin, 
 V. N. Staroverov, T. A. Keith, R. Kobayashi, J. Normand, 
 K. Raghavachari, A. P. Rendell, J. C. Burant, S. S. Iyengar, 
 J. Tomasi, M. Cossi, J. M. Millam, M. Klene, C. Adamo, R. Cammi, 
 J. W. Ochterski, R. L. Martin, K. Morokuma, O. Farkas, 
 J. B. Foresman, and D. J. Fox, Gaussian, Inc., Wallingford CT, 2016.
 
 ******************************************
 Gaussian 16:  EM64L-G16RevA.03 25-Dec-2016
                14-Aug-2023 
 ******************************************
 %NProcShared=24
 Will use up to   24 processors via shared memory.
 %Chk=ch3hgSH_gas_apfd_def2svp.chk
 ------------------------------------------------
 #Opt Freq mp2/def2svp int=UltraFine scf=xqc test
 ------------------------------------------------
 1/18=20,19=15,38=1/1,3;
 2/9=110,12=2,17=6,18=5,40=1/2;
 3/5=43,7=101,11=9,25=1,30=1,71=1,75=-5/1,2,3;
 4//1;
 5/5=2,8=3,13=1,38=5/2,8;
 8/6=4,10=1/1;
 9/15=2,16=-3/6;
 10/5=1/2;
 6/7=2,8=2,9=2,10=2/1;
 7/12=2/1,2,3,16;
 1/18=20,19=15/3(2);
 2/9=110/2;
 99//99;
 2/9=110/2;
 3/5=43,7=101,11=9,25=1,30=1,71=1,75=-5/1,2,3;
 4/5=5,16=3,69=1/1;
 5/5=2,8=3,13=1,38=5/2,8;
 8/6=4,10=1/1;
 9/15=2,16=-3/6;
 10/5=1/2;
 7/12=2/1,2,3,16;
 1/18=20,19=15/3(-8);
 2/9=110/2;
 6/7=2,8=2,9=2,10=2/1;
 99//99;
 ------------------------------------------
 Optimization MeHgSH-gas-apfd-def2svp phase
 ------------------------------------------
 Symbolic Z-matrix:
 Charge =  0 Multiplicity = 1
 C                    -9.36254   1.35064   0.00033 
 Hg                   -7.22772   1.61449   0.00072 
 H                    -9.69627   1.11158   1.00277 
 H                    -9.62435   0.54307  -0.67273 
 H                    -9.83642   2.26673  -0.33154 
 S                    -4.79952   1.97511   0.00087 
 H                    -4.38272   0.68446  -0.00042 
 

 GradGradGradGradGradGradGradGradGradGradGradGradGradGradGradGradGradGrad
 Berny optimization.
 Initialization pass.
                           ----------------------------
                           !    Initial Parameters    !
                           ! (Angstroms and Degrees)  !
 --------------------------                            --------------------------
 ! Name  Definition              Value          Derivative Info.                !
 --------------------------------------------------------------------------------
 ! R1    R(1,2)                  2.1511         estimate D2E/DX2                !
 ! R2    R(1,3)                  1.0832         estimate D2E/DX2                !
 ! R3    R(1,4)                  1.0834         estimate D2E/DX2                !
 ! R4    R(1,5)                  1.0835         estimate D2E/DX2                !
 ! R5    R(2,6)                  2.4548         estimate D2E/DX2                !
 ! R6    R(6,7)                  1.3563         estimate D2E/DX2                !
 ! A1    A(2,1,3)              109.4308         estimate D2E/DX2                !
 ! A2    A(2,1,4)              109.3528         estimate D2E/DX2                !
 ! A3    A(2,1,5)              109.2942         estimate D2E/DX2                !
 ! A4    A(3,1,4)              109.6306         estimate D2E/DX2                !
 ! A5    A(3,1,5)              109.5904         estimate D2E/DX2                !
 ! A6    A(4,1,5)              109.5277         estimate D2E/DX2                !
 ! A7    A(2,6,7)               99.45           estimate D2E/DX2                !
 ! A8    L(1,2,6,7,-1)         181.402          estimate D2E/DX2                !
 ! A9    L(1,2,6,7,-2)         179.9809         estimate D2E/DX2                !
 ! D1    D(3,1,6,7)             79.2365         estimate D2E/DX2                !
 ! D2    D(4,1,6,7)            -41.2979         estimate D2E/DX2                !
 ! D3    D(5,1,6,7)           -161.092          estimate D2E/DX2                !
 --------------------------------------------------------------------------------
 Trust Radius=3.00D-01 FncErr=1.00D-07 GrdErr=1.00D-07 EigMax=2.50D+02 EigMin=1.00D-04
 Number of steps in this run=     28 maximum allowed number of steps=    100.
 GradGradGradGradGradGradGradGradGradGradGradGradGradGradGradGradGradGrad

                          Input orientation:                          
 ---------------------------------------------------------------------
 Center     Atomic      Atomic             Coordinates (Angstroms)
 Number     Number       Type             X           Y           Z
 ---------------------------------------------------------------------
      1          6           0       -9.362536    1.350640    0.000330
      2         80           0       -7.227724    1.614486    0.000717
      3          1           0       -9.696274    1.111583    1.002768
      4          1           0       -9.624354    0.543067   -0.672731
      5          1           0       -9.836422    2.266727   -0.331541
      6         16           0       -4.799524    1.975112    0.000869
      7          1           0       -4.382717    0.684464   -0.000421
 ---------------------------------------------------------------------
                    Distance matrix (angstroms):
                    1          2          3          4          5
     1  C    0.000000
     2  Hg   2.151055   0.000000
     3  H    1.083241   2.711228   0.000000
     4  H    1.083390   2.710223   1.770785   0.000000
     5  H    1.083477   2.709450   1.770418   1.769855   0.000000
     6  S    4.605545   2.454833   5.072243   5.077743   5.056271
     7  H    5.024180   2.993160   5.424270   5.286469   5.688242
                    6          7
     6  S    0.000000
     7  H    1.356282   0.000000
 Stoichiometry    CH4HgS
 Framework group  C1[X(CH4HgS)]
 Deg. of freedom    15
 Full point group                 C1      NOp   1
 Largest Abelian subgroup         C1      NOp   1
 Largest concise Abelian subgroup C1      NOp   1
                         Standard orientation:                         
 ---------------------------------------------------------------------
 Center     Atomic      Atomic             Coordinates (Angstroms)
 Number     Number       Type             X           Y           Z
 ---------------------------------------------------------------------
      1          6           0        2.354205    0.014033   -0.000067
      2         80           0        0.203206   -0.001455    0.000065
      3          1           0        2.713211    0.211910    1.002614
      4          1           0        2.707628    0.786648   -0.672296
      5          1           0        2.719139   -0.950320   -0.332888
      6         16           0       -2.250396   -0.079186   -0.000135
      7          1           0       -2.515331    1.250969   -0.000089
 ---------------------------------------------------------------------
 Rotational constants (GHZ):         103.1765803           1.8929681           1.8807276
 Standard basis: def2SVP (5D, 7F)
 There are    91 symmetry adapted cartesian basis functions of A   symmetry.
 There are    84 symmetry adapted basis functions of A   symmetry.
    84 basis functions,   155 primitive gaussians,    91 cartesian basis functions
    23 alpha electrons       23 beta electrons
       nuclear repulsion energy       146.6485017024 Hartrees.
 NAtoms=    7 NActive=    7 NUniq=    7 SFac= 1.00D+00 NAtFMM=   60 NAOKFM=F Big=F
 Integral buffers will be    131072 words long.
 Raffenetti 1 integral format.
 Two-electron integral symmetry is turned on.
 One-electron integrals computed using PRISM.
 PrsmSu:  requested number of processors reduced to:  13 ShMem   1 Linda.
   1 Symmetry operations used in ECPInt.
 ECPInt:  NShTT=     741 NPrTT=    2476 LenC2=     732 LenP2D=    2078.
 LDataN:  DoStor=T MaxTD1= 8 Len=  415
 NBasis=    84 RedAO= T EigKep=  8.92D-03  NBF=    84
 NBsUse=    84 1.00D-06 EigRej= -1.00D+00 NBFU=    84
 ExpMin= 5.64D-02 ExpMax= 9.18D+03 ExpMxC= 1.38D+03 IAcc=3 IRadAn=         5 AccDes= 0.00D+00
 Harris functional with IExCor=  205 and IRadAn=       5 diagonalized for initial guess.
 HarFok:  IExCor=  205 AccDes= 0.00D+00 IRadAn=         5 IDoV= 1 UseB2=F ITyADJ=14
 ICtDFT=  3500011 ScaDFX=  1.000000  1.000000  1.000000  1.000000
 Defaulting to unpruned grid for atomic number  80.
 FoFCou: FMM=F IPFlag=           0 FMFlag=      100000 FMFlg1=           0
         NFxFlg=           0 DoJE=T BraDBF=F KetDBF=T FulRan=T
         wScrn=  0.000000 ICntrl=       500 IOpCl=  0 I1Cent=   200000004 NGrid=           0
         NMat0=    1 NMatS0=      1 NMatT0=    0 NMatD0=    1 NMtDS0=    0 NMtDT0=    0
 Petite list used in FoFCou.
 Keep R1 ints in memory in canonical form, NReq=18104769.
 Requested convergence on RMS density matrix=1.00D-08 within  32 cycles.
 Requested convergence on MAX density matrix=1.00D-06.
 Requested convergence on             energy=1.00D-06.
 No special actions if energy rises.
 SCF Done:  E(RHF) =  -590.090574418     A.U. after   13 cycles
            NFock= 13  Conv=0.50D-08     -V/T= 2.2087
 QCSCF skips out because SCF is already converged.
 ExpMin= 5.64D-02 ExpMax= 9.18D+03 ExpMxC= 1.38D+03 IAcc=3 IRadAn=         5 AccDes= 0.00D+00
 HarFok:  IExCor=  205 AccDes= 0.00D+00 IRadAn=         5 IDoV=-2 UseB2=F ITyADJ=14
 ICtDFT= 12500011 ScaDFX=  1.000000  1.000000  1.000000  1.000000
 Defaulting to unpruned grid for atomic number  80.
 Range of M.O.s used for correlation:     7    84
 NBasis=    84 NAE=    23 NBE=    23 NFC=     6 NFV=     0
 NROrb=     78 NOA=    17 NOB=    17 NVA=    61 NVB=    61
 Disk-based method using ON**2 memory for 17 occupieds at a time.
 Estimated scratch disk usage=    24641108 words.
 Actual    scratch disk usage=    23141972 words.
 GetIJB would need an additional   280329380 words of memory to use all  24 processors.
 JobTyp=1 Pass  1:  I=   7 to  23 NPSUse=  6 ParTrn=T ParDer=T DoDerP=T.
 (rs|ai) integrals will be sorted in core.
 Spin components of T(2) and E(2):
     alpha-alpha T2 =       0.3022703152D-01 E2=     -0.9954767303D-01
     alpha-beta  T2 =       0.1493114305D+00 E2=     -0.4603343385D+00
     beta-beta   T2 =       0.3022703152D-01 E2=     -0.9954767303D-01
 ANorm=    0.1099893401D+01
 E2 =    -0.6594296845D+00 EUMP2 =    -0.59075000410283D+03
          IDoAtm=1111111
          Differentiating once with respect to electric field.
                with respect to dipole field.
          Differentiating once with respect to nuclear coordinates.
 Keep R1 ints in memory in canonical form, NReq=18108325.
          There are     1 degrees of freedom in the 1st order CPHF.  IDoFFX=0 NUNeed=     1.
 LinEq1:  Iter=  0 NonCon=     1 RMS=7.35D-03 Max=1.53D-01 NDo=     1
 AX will form     1 AO Fock derivatives at one time.
 LinEq1:  Iter=  1 NonCon=     1 RMS=1.56D-03 Max=2.06D-02 NDo=     1
 LinEq1:  Iter=  2 NonCon=     1 RMS=5.54D-04 Max=7.70D-03 NDo=     1
 LinEq1:  Iter=  3 NonCon=     1 RMS=1.22D-04 Max=1.63D-03 NDo=     1
 LinEq1:  Iter=  4 NonCon=     1 RMS=3.27D-05 Max=4.35D-04 NDo=     1
 LinEq1:  Iter=  5 NonCon=     1 RMS=1.11D-05 Max=1.52D-04 NDo=     1
 LinEq1:  Iter=  6 NonCon=     1 RMS=3.45D-06 Max=4.81D-05 NDo=     1
 LinEq1:  Iter=  7 NonCon=     1 RMS=9.35D-07 Max=9.77D-06 NDo=     1
 LinEq1:  Iter=  8 NonCon=     1 RMS=2.12D-07 Max=2.37D-06 NDo=     1
 LinEq1:  Iter=  9 NonCon=     1 RMS=5.92D-08 Max=7.33D-07 NDo=     1
 LinEq1:  Iter= 10 NonCon=     1 RMS=1.71D-08 Max=2.11D-07 NDo=     1
 LinEq1:  Iter= 11 NonCon=     1 RMS=4.56D-09 Max=4.94D-08 NDo=     1
 LinEq1:  Iter= 12 NonCon=     1 RMS=1.51D-09 Max=1.38D-08 NDo=     1
 LinEq1:  Iter= 13 NonCon=     1 RMS=3.62D-10 Max=3.22D-09 NDo=     1
 LinEq1:  Iter= 14 NonCon=     0 RMS=7.54D-11 Max=8.54D-10 NDo=     1
 Linear equations converged to 1.000D-10 1.000D-09 after    14 iterations.
 End of Minotr F.D. properties file   721 does not exist.
 End of Minotr F.D. properties file   722 does not exist.
 End of Minotr F.D. properties file   788 does not exist.

 **********************************************************************

            Population analysis using the SCF density.

 **********************************************************************

 Orbital symmetries:
       Occupied  (A) (A) (A) (A) (A) (A) (A) (A) (A) (A) (A) (A)
                 (A) (A) (A) (A) (A) (A) (A) (A) (A) (A) (A)
       Virtual   (A) (A) (A) (A) (A) (A) (A) (A) (A) (A) (A) (A)
                 (A) (A) (A) (A) (A) (A) (A) (A) (A) (A) (A) (A)
                 (A) (A) (A) (A) (A) (A) (A) (A) (A) (A) (A) (A)
                 (A) (A) (A) (A) (A) (A) (A) (A) (A) (A) (A) (A)
                 (A) (A) (A) (A) (A) (A) (A) (A) (A) (A) (A) (A)
                 (A)
 The electronic state is 1-A.
 Alpha  occ. eigenvalues --  -91.88765 -11.23807  -8.92030  -6.60818  -6.60697
 Alpha  occ. eigenvalues --   -6.60519  -5.10968  -3.09869  -3.09778  -3.09686
 Alpha  occ. eigenvalues --   -0.93090  -0.90619  -0.68014  -0.67807  -0.67190
 Alpha  occ. eigenvalues --   -0.66578  -0.66573  -0.55459  -0.55416  -0.50064
 Alpha  occ. eigenvalues --   -0.43815  -0.35767  -0.34278
 Alpha virt. eigenvalues --    0.07984   0.09177   0.09524   0.17938   0.20560
 Alpha virt. eigenvalues --    0.26167   0.26198   0.28059   0.33958   0.51905
 Alpha virt. eigenvalues --    0.57716   0.60178   0.61657   0.62018   0.66377
 Alpha virt. eigenvalues --    0.71884   0.72674   0.73094   0.76037   0.89078
 Alpha virt. eigenvalues --    0.90610   0.91914   0.92017   0.97523   0.97734
 Alpha virt. eigenvalues --    1.03619   1.04095   1.04613   1.08568   1.09524
 Alpha virt. eigenvalues --    1.10976   1.24905   1.33161   1.48122   1.49939
 Alpha virt. eigenvalues --    1.50721   1.80136   1.81603   1.82453   1.83069
 Alpha virt. eigenvalues --    1.83077   1.83168   1.83246   1.83426   1.86025
 Alpha virt. eigenvalues --    1.88861   2.05682   2.05685   2.21038   2.28907
 Alpha virt. eigenvalues --    2.28965   2.50864   2.52901   2.68534   2.76146
 Alpha virt. eigenvalues --    2.76164   3.08690   3.28129   3.28164  33.75720
 Alpha virt. eigenvalues --  121.69960
          Condensed to atoms (all electrons):
               1          2          3          4          5          6
     1  C    5.027741   0.288667   0.378110   0.378674   0.376576  -0.008666
     2  Hg   0.288667  18.995919  -0.036154  -0.035553  -0.034244   0.264054
     3  H    0.378110  -0.036154   0.609198  -0.011946  -0.011047   0.000198
     4  H    0.378674  -0.035553  -0.011946   0.608224  -0.010443   0.000210
     5  H    0.376576  -0.034244  -0.011047  -0.010443   0.607046   0.000236
     6  S   -0.008666   0.264054   0.000198   0.000210   0.000236  15.852777
     7  H    0.000296  -0.012626  -0.000012  -0.000025  -0.000000   0.295987
               7
     1  C    0.000296
     2  Hg  -0.012626
     3  H   -0.000012
     4  H   -0.000025
     5  H   -0.000000
     6  S    0.295987
     7  H    0.654509
 Mulliken charges:
               1
     1  C   -0.441397
     2  Hg   0.569937
     3  H    0.071652
     4  H    0.070859
     5  H    0.071876
     6  S   -0.404798
     7  H    0.061871
 Sum of Mulliken charges =  -0.00000
 Mulliken charges with hydrogens summed into heavy atoms:
               1
     1  C   -0.227010
     2  Hg   0.569937
     6  S   -0.342927
 Electronic spatial extent (au):  <R**2>=            634.7732
 Charge=             -0.0000 electrons
 Dipole moment (field-independent basis, Debye):
    X=              2.6771    Y=              0.9195    Z=             -0.0004  Tot=              2.8306
 Quadrupole moment (field-independent basis, Debye-Ang):
   XX=            -54.0774   YY=            -41.9469   ZZ=            -45.3427
   XY=             -2.9955   XZ=             -0.0033   YZ=              0.0012
 Traceless Quadrupole moment (field-independent basis, Debye-Ang):
   XX=             -6.9551   YY=              5.1755   ZZ=              1.7796
   XY=             -2.9955   XZ=             -0.0033   YZ=              0.0012
 Octapole moment (field-independent basis, Debye-Ang**2):
  XXX=             35.7628  YYY=              0.8861  ZZZ=              0.5140  XYY=              6.1850
  XXY=              8.4158  XXZ=             -0.0060  XZZ=             13.2914  YZZ=              0.5456
  YYZ=             -0.4949  XYZ=              0.0056
 Hexadecapole moment (field-independent basis, Debye-Ang**3):
 XXXX=           -840.3800 YYYY=            -58.3731 ZZZZ=            -59.2038 XXXY=            -24.8277
 XXXZ=             -0.0295 YYYX=             -5.8704 YYYZ=             -0.0199 ZZZX=              1.4458
 ZZZY=              0.0076 XXYY=           -131.2156 XXZZ=           -146.7926 YYZZ=            -20.1077
 XXYZ=              0.0222 YYXZ=             -1.4394 ZZXY=             -0.0479
 N-N= 1.466485017024D+02 E-N=-1.653249135694D+03  KE= 4.882031318351D+02
 PrsmSu:  requested number of processors reduced to:  13 ShMem   1 Linda.
   1 Symmetry operations used in ECPInt.
 ECPInt:  NShTT=     741 NPrTT=    2476 LenC2=     732 LenP2D=    2078.
 LDataN:  DoStor=T MaxTD1= 9 Len=  602
 Calling FoFJK, ICntrl=  10002127 FMM=F ISym2X=0 I1Cent= 0 IOpClX= 0 NMat=1 NMatS=1 NMatT=0.
 ***** Axes restored to original set *****
 -------------------------------------------------------------------
 Center     Atomic                   Forces (Hartrees/Bohr)
 Number     Number              X              Y              Z
 -------------------------------------------------------------------
      1        6           0.025777280    0.003768990    0.000149393
      2       80           0.002668861   -0.003038703   -0.000048367
      3        1          -0.001210000   -0.002012629    0.009900276
      4        1          -0.000363721   -0.007616985   -0.006735048
      5        1          -0.002815311    0.009139789   -0.003278354
      6       16          -0.016783831   -0.005811124    0.000014880
      7        1          -0.007273279    0.005570662   -0.000002780
 -------------------------------------------------------------------
 Cartesian Forces:  Max     0.025777280 RMS     0.008175763

 GradGradGradGradGradGradGradGradGradGradGradGradGradGradGradGradGradGrad
 Berny optimization.
 FormGI is forming the generalized inverse of G from B-inverse, IUseBI=4.
 Internal  Forces:  Max     0.023831550 RMS     0.009417541
 Search for a local minimum.
 Step number   1 out of a maximum of   28
 All quantities printed in internal units (Hartrees-Bohrs-Radians)
 Mixed Optimization -- RFO/linear search
 Second derivative matrix not updated -- first step.
 The second derivative matrix:
                          R1        R2        R3        R4        R5
           R1           0.13431
           R2           0.00000   0.35606
           R3           0.00000   0.00000   0.35588
           R4           0.00000   0.00000   0.00000   0.35578
           R5           0.00000   0.00000   0.00000   0.00000   0.13878
           R6           0.00000   0.00000   0.00000   0.00000   0.00000
           A1           0.00000   0.00000   0.00000   0.00000   0.00000
           A2           0.00000   0.00000   0.00000   0.00000   0.00000
           A3           0.00000   0.00000   0.00000   0.00000   0.00000
           A4           0.00000   0.00000   0.00000   0.00000   0.00000
           A5           0.00000   0.00000   0.00000   0.00000   0.00000
           A6           0.00000   0.00000   0.00000   0.00000   0.00000
           A7           0.00000   0.00000   0.00000   0.00000   0.00000
           A8           0.00000   0.00000   0.00000   0.00000   0.00000
           A9           0.00000   0.00000   0.00000   0.00000   0.00000
           D1           0.00000   0.00000   0.00000   0.00000   0.00000
           D2           0.00000   0.00000   0.00000   0.00000   0.00000
           D3           0.00000   0.00000   0.00000   0.00000   0.00000
                          R6        A1        A2        A3        A4
           R6           0.25161
           A1           0.00000   0.16000
           A2           0.00000   0.00000   0.16000
           A3           0.00000   0.00000   0.00000   0.16000
           A4           0.00000   0.00000   0.00000   0.00000   0.16000
           A5           0.00000   0.00000   0.00000   0.00000   0.00000
           A6           0.00000   0.00000   0.00000   0.00000   0.00000
           A7           0.00000   0.00000   0.00000   0.00000   0.00000
           A8           0.00000   0.00000   0.00000   0.00000   0.00000
           A9           0.00000   0.00000   0.00000   0.00000   0.00000
           D1           0.00000   0.00000   0.00000   0.00000   0.00000
           D2           0.00000   0.00000   0.00000   0.00000   0.00000
           D3           0.00000   0.00000   0.00000   0.00000   0.00000
                          A5        A6        A7        A8        A9
           A5           0.16000
           A6           0.00000   0.16000
           A7           0.00000   0.00000   0.16000
           A8           0.00000   0.00000   0.00000   0.00230
           A9           0.00000   0.00000   0.00000   0.00000   0.00230
           D1           0.00000   0.00000   0.00000   0.00000   0.00000
           D2           0.00000   0.00000   0.00000   0.00000   0.00000
           D3           0.00000   0.00000   0.00000   0.00000   0.00000
                          D1        D2        D3
           D1           0.00230
           D2           0.00000   0.00230
           D3           0.00000   0.00000   0.00230
 ITU=  0
     Eigenvalues ---    0.00230   0.00230   0.00230   0.10013   0.10129
     Eigenvalues ---    0.13431   0.13878   0.16000   0.16000   0.16000
     Eigenvalues ---    0.16000   0.25161   0.35578   0.35588   0.35606
 RFO step:  Lambda=-9.60436337D-03 EMin= 2.30000000D-03
 Linear search not attempted -- first point.
 Iteration  1 RMS(Cart)=  0.12645345 RMS(Int)=  0.00532586
 Iteration  2 RMS(Cart)=  0.00788754 RMS(Int)=  0.00037874
 Iteration  3 RMS(Cart)=  0.00001270 RMS(Int)=  0.00037866
 Iteration  4 RMS(Cart)=  0.00000000 RMS(Int)=  0.00037866
 Variable       Old X    -DE/DX   Delta X   Delta X   Delta X     New X
                                 (Linear)    (Quad)   (Total)
    R1        4.06490  -0.02163   0.00000  -0.15029  -0.15028   3.91462
    R2        2.04703   0.00998   0.00000   0.02729   0.02729   2.07432
    R3        2.04731   0.00995   0.00000   0.02722   0.02722   2.07453
    R4        2.04747   0.00996   0.00000   0.02727   0.02727   2.07474
    R5        4.63896  -0.02383   0.00000  -0.16061  -0.16061   4.47835
    R6        2.56300  -0.00754   0.00000  -0.02885  -0.02885   2.53415
    A1        1.90993  -0.00205   0.00000  -0.01209  -0.01249   1.89744
    A2        1.90857  -0.00238   0.00000  -0.01434  -0.01425   1.89432
    A3        1.90754  -0.00155   0.00000  -0.00887  -0.00879   1.89875
    A4        1.91342   0.00203   0.00000   0.01139   0.01106   1.92448
    A5        1.91271   0.00202   0.00000   0.01253   0.01200   1.92471
    A6        1.91162   0.00192   0.00000   0.01124   0.01187   1.92349
    A7        1.73573  -0.01335   0.00000  -0.07872  -0.07872   1.65701
    A8        3.16606   0.00189   0.00000   0.15501   0.15496   3.32103
    A9        3.14126   0.00003   0.00000   0.00179   0.00187   3.14313
    D1        1.38294   0.00016   0.00000   0.02775   0.02757   1.41051
    D2       -0.72078  -0.00015   0.00000  -0.01825  -0.01902  -0.73980
    D3       -2.81158   0.00001   0.00000  -0.00752  -0.00652  -2.81811
         Item               Value     Threshold  Converged?
 Maximum Force            0.023832     0.000450     NO 
 RMS     Force            0.009418     0.000300     NO 
 Maximum Displacement     0.288373     0.001800     NO 
 RMS     Displacement     0.130057     0.001200     NO 
 Predicted change in Energy=-5.203975D-03
 GradGradGradGradGradGradGradGradGradGradGradGradGradGradGradGradGradGrad

                          Input orientation:                          
 ---------------------------------------------------------------------
 Center     Atomic      Atomic             Coordinates (Angstroms)
 Number     Number       Type             X           Y           Z
 ---------------------------------------------------------------------
      1          6           0       -9.302046    1.348223    0.000264
      2         80           0       -7.233639    1.461886   -0.000018
      3          1           0       -9.642544    1.128015    1.020301
      4          1           0       -9.607581    0.546046   -0.684073
      5          1           0       -9.709139    2.310337   -0.337390
      6         16           0       -4.928564    2.012141    0.001484
      7          1           0       -4.506037    0.739432   -0.000576
 ---------------------------------------------------------------------
                    Distance matrix (angstroms):
                    1          2          3          4          5
     1  C    0.000000
     2  Hg   2.071528   0.000000
     3  H    1.097682   2.637298   0.000000
     4  H    1.097796   2.634823   1.801333   0.000000
     5  H    1.097906   2.638520   1.801568   1.800896   0.000000
     6  S    4.423588   2.369843   4.903190   4.951022   4.801838
     7  H    4.834494   2.821658   5.251370   5.150759   5.445499
                    6          7
     6  S    0.000000
     7  H    1.341015   0.000000
 Stoichiometry    CH4HgS
 Framework group  C1[X(CH4HgS)]
 Deg. of freedom    15
 Full point group                 C1      NOp   1
 Largest Abelian subgroup         C1      NOp   1
 Largest concise Abelian subgroup C1      NOp   1
                         Standard orientation:                         
 ---------------------------------------------------------------------
 Center     Atomic      Atomic             Coordinates (Angstroms)
 Number     Number       Type             X           Y           Z
 ---------------------------------------------------------------------
      1          6           0        2.258129   -0.158191    0.000552
      2         80           0        0.195845    0.037288   -0.000081
      3          1           0        2.627241    0.006818    1.021060
      4          1           0        2.679909    0.590956   -0.682117
      5          1           0        2.517602   -1.169496   -0.339055
      6         16           0       -2.165456   -0.163739    0.000159
      7          1           0       -2.393838    1.157686    0.000690
 ---------------------------------------------------------------------
 Rotational constants (GHZ):          83.2333394           2.0469073           2.0239477
 Standard basis: def2SVP (5D, 7F)
 There are    91 symmetry adapted cartesian basis functions of A   symmetry.
 There are    84 symmetry adapted basis functions of A   symmetry.
    84 basis functions,   155 primitive gaussians,    91 cartesian basis functions
    23 alpha electrons       23 beta electrons
       nuclear repulsion energy       151.4144317723 Hartrees.
 NAtoms=    7 NActive=    7 NUniq=    7 SFac= 1.00D+00 NAtFMM=   60 NAOKFM=F Big=F
 Integral buffers will be    131072 words long.
 Raffenetti 1 integral format.
 Two-electron integral symmetry is turned on.
 One-electron integrals computed using PRISM.
 PrsmSu:  requested number of processors reduced to:  13 ShMem   1 Linda.
   1 Symmetry operations used in ECPInt.
 ECPInt:  NShTT=     741 NPrTT=    2476 LenC2=     734 LenP2D=    2094.
 LDataN:  DoStor=T MaxTD1= 8 Len=  415
 NBasis=    84 RedAO= T EigKep=  8.40D-03  NBF=    84
 NBsUse=    84 1.00D-06 EigRej= -1.00D+00 NBFU=    84
 Initial guess from the checkpoint file:  "ch3hgSH_gas_apfd_def2svp.chk"
 B after Tr=     0.000000   -0.000000    0.000000
         Rot=    0.999999   -0.000349    0.000004    0.001375 Ang=  -0.16 deg.
 ExpMin= 5.64D-02 ExpMax= 9.18D+03 ExpMxC= 1.38D+03 IAcc=2 IRadAn=         4 AccDes= 0.00D+00
 Harris functional with IExCor=  205 and IRadAn=       4 diagonalized for initial guess.
 HarFok:  IExCor=  205 AccDes= 0.00D+00 IRadAn=         4 IDoV= 1 UseB2=F ITyADJ=14
 ICtDFT=  3500011 ScaDFX=  1.000000  1.000000  1.000000  1.000000
 Defaulting to unpruned grid for atomic number  80.
 FoFCou: FMM=F IPFlag=           0 FMFlag=      100000 FMFlg1=           0
         NFxFlg=           0 DoJE=T BraDBF=F KetDBF=T FulRan=T
         wScrn=  0.000000 ICntrl=       500 IOpCl=  0 I1Cent=   200000004 NGrid=           0
         NMat0=    1 NMatS0=      1 NMatT0=    0 NMatD0=    1 NMtDS0=    0 NMtDT0=    0
 Petite list used in FoFCou.
 Keep R1 ints in memory in canonical form, NReq=18106264.
 Requested convergence on RMS density matrix=1.00D-08 within  32 cycles.
 Requested convergence on MAX density matrix=1.00D-06.
 Requested convergence on             energy=1.00D-06.
 No special actions if energy rises.
 SCF Done:  E(RHF) =  -590.088942764     A.U. after   13 cycles
            NFock= 13  Conv=0.27D-08     -V/T= 2.2085
 QCSCF skips out because SCF is already converged.
 ExpMin= 5.64D-02 ExpMax= 9.18D+03 ExpMxC= 1.38D+03 IAcc=3 IRadAn=         5 AccDes= 0.00D+00
 HarFok:  IExCor=  205 AccDes= 0.00D+00 IRadAn=         5 IDoV=-2 UseB2=F ITyADJ=14
 ICtDFT= 12500011 ScaDFX=  1.000000  1.000000  1.000000  1.000000
 Defaulting to unpruned grid for atomic number  80.
 Range of M.O.s used for correlation:     7    84
 NBasis=    84 NAE=    23 NBE=    23 NFC=     6 NFV=     0
 NROrb=     78 NOA=    17 NOB=    17 NVA=    61 NVB=    61
 Disk-based method using ON**2 memory for 17 occupieds at a time.
 Estimated scratch disk usage=    24769854 words.
 Actual    scratch disk usage=    23262526 words.
 GetIJB would need an additional   280341188 words of memory to use all  24 processors.
 JobTyp=1 Pass  1:  I=   7 to  23 NPSUse=  6 ParTrn=T ParDer=T DoDerP=T.
 (rs|ai) integrals will be sorted in core.
 Spin components of T(2) and E(2):
     alpha-alpha T2 =       0.3063157746D-01 E2=     -0.1009200773D+00
     alpha-beta  T2 =       0.1491910686D+00 E2=     -0.4630605925D+00
     beta-beta   T2 =       0.3063157746D-01 E2=     -0.1009200773D+00
 ANorm=    0.1100206446D+01
 E2 =    -0.6649007470D+00 EUMP2 =    -0.59075384351154D+03
          IDoAtm=1111111
          Differentiating once with respect to electric field.
                with respect to dipole field.
          Differentiating once with respect to nuclear coordinates.
 Keep R1 ints in memory in canonical form, NReq=18109001.
          There are     1 degrees of freedom in the 1st order CPHF.  IDoFFX=0 NUNeed=     1.
 LinEq1:  Iter=  0 NonCon=     1 RMS=7.11D-03 Max=1.11D-01 NDo=     1
 AX will form     1 AO Fock derivatives at one time.
 LinEq1:  Iter=  1 NonCon=     1 RMS=1.57D-03 Max=1.70D-02 NDo=     1
 LinEq1:  Iter=  2 NonCon=     1 RMS=5.49D-04 Max=6.70D-03 NDo=     1
 LinEq1:  Iter=  3 NonCon=     1 RMS=1.19D-04 Max=1.38D-03 NDo=     1
 LinEq1:  Iter=  4 NonCon=     1 RMS=3.05D-05 Max=3.68D-04 NDo=     1
 LinEq1:  Iter=  5 NonCon=     1 RMS=1.04D-05 Max=1.54D-04 NDo=     1
 LinEq1:  Iter=  6 NonCon=     1 RMS=3.32D-06 Max=4.61D-05 NDo=     1
 LinEq1:  Iter=  7 NonCon=     1 RMS=9.41D-07 Max=1.10D-05 NDo=     1
 LinEq1:  Iter=  8 NonCon=     1 RMS=1.88D-07 Max=2.00D-06 NDo=     1
 LinEq1:  Iter=  9 NonCon=     1 RMS=4.77D-08 Max=5.87D-07 NDo=     1
 LinEq1:  Iter= 10 NonCon=     1 RMS=1.27D-08 Max=1.55D-07 NDo=     1
 LinEq1:  Iter= 11 NonCon=     1 RMS=2.50D-09 Max=3.15D-08 NDo=     1
 LinEq1:  Iter= 12 NonCon=     1 RMS=4.67D-10 Max=3.99D-09 NDo=     1
 LinEq1:  Iter= 13 NonCon=     1 RMS=1.05D-10 Max=1.34D-09 NDo=     1
 LinEq1:  Iter= 14 NonCon=     0 RMS=4.24D-11 Max=5.25D-10 NDo=     1
 Linear equations converged to 1.000D-10 1.000D-09 after    14 iterations.
 End of Minotr F.D. properties file   721 does not exist.
 End of Minotr F.D. properties file   722 does not exist.
 End of Minotr F.D. properties file   788 does not exist.
 PrsmSu:  requested number of processors reduced to:  13 ShMem   1 Linda.
   1 Symmetry operations used in ECPInt.
 ECPInt:  NShTT=     741 NPrTT=    2476 LenC2=     734 LenP2D=    2094.
 LDataN:  DoStor=T MaxTD1= 9 Len=  602
 Calling FoFJK, ICntrl=  10002127 FMM=F ISym2X=0 I1Cent= 0 IOpClX= 0 NMat=1 NMatS=1 NMatT=0.
 ***** Axes restored to original set *****
 -------------------------------------------------------------------
 Center     Atomic                   Forces (Hartrees/Bohr)
 Number     Number              X              Y              Z
 -------------------------------------------------------------------
      1        6           0.003961713   -0.006749537    0.000251519
      2       80           0.004499224    0.011759182   -0.000028619
      3        1          -0.001914221    0.000040210   -0.000914634
      4        1          -0.002985122    0.000763857    0.000718759
      5        1           0.000217264   -0.000348272   -0.000021960
      6       16          -0.004628359   -0.004594636    0.000018974
      7        1           0.000849501   -0.000870805   -0.000024038
 -------------------------------------------------------------------
 Cartesian Forces:  Max     0.011759182 RMS     0.003641903

 GradGradGradGradGradGradGradGradGradGradGradGradGradGradGradGradGradGrad
 Berny optimization.
 Using GEDIIS/GDIIS optimizer.
 FormGI is forming the generalized inverse of G from B-inverse, IUseBI=4.
 Internal  Forces:  Max     0.018169974 RMS     0.004782642
 Search for a local minimum.
 Step number   2 out of a maximum of   28
 All quantities printed in internal units (Hartrees-Bohrs-Radians)
 Mixed Optimization -- RFO/linear search
 Update second derivatives using D2CorX and points    1    2
 DE= -3.84D-03 DEPred=-5.20D-03 R= 7.38D-01
 TightC=F SS=  1.41D+00  RLast= 2.89D-01 DXNew= 5.0454D-01 8.6775D-01
 Trust test= 7.38D-01 RLast= 2.89D-01 DXMaxT set to 5.05D-01
 The second derivative matrix:
                          R1        R2        R3        R4        R5
           R1           0.13038
           R2           0.00316   0.35396
           R3           0.00331  -0.00216   0.35365
           R4           0.00294  -0.00199  -0.00206   0.35389
           R5          -0.01584   0.00868   0.00879   0.00849   0.11171
           R6          -0.00053   0.00074   0.00080   0.00065  -0.00496
           A1           0.00466  -0.00197  -0.00192  -0.00201   0.00263
           A2           0.00870  -0.00377  -0.00371  -0.00384   0.00582
           A3          -0.00468   0.00221   0.00220   0.00221  -0.00477
           A4          -0.00155   0.00058   0.00056   0.00061  -0.00019
           A5          -0.00366   0.00152   0.00149   0.00156  -0.00185
           A6          -0.00331   0.00136   0.00133   0.00140  -0.00157
           A7          -0.00144   0.00151   0.00161   0.00137  -0.00904
           A8          -0.03664   0.01652   0.01633   0.01669  -0.03030
           A9          -0.00008   0.00003   0.00003   0.00004  -0.00006
           D1          -0.00232   0.00104   0.00103   0.00105  -0.00189
           D2           0.00175  -0.00079  -0.00078  -0.00080   0.00143
           D3           0.00064  -0.00029  -0.00029  -0.00029   0.00053
                          R6        A1        A2        A3        A4
           R6           0.25176
           A1           0.00187   0.16156
           A2           0.00342   0.00252   0.16399
           A3          -0.00171  -0.00064  -0.00084   0.15982
           A4          -0.00068  -0.00082  -0.00139   0.00048   0.16039
           A5          -0.00148  -0.00132  -0.00215   0.00058   0.00068
           A6          -0.00135  -0.00124  -0.00203   0.00057   0.00063
           A7           0.00005   0.00313   0.00576  -0.00295  -0.00110
           A8          -0.01396  -0.00809  -0.01222   0.00134   0.00489
           A9          -0.00003  -0.00002  -0.00003   0.00000   0.00001
           D1          -0.00089  -0.00052  -0.00079   0.00009   0.00031
           D2           0.00067   0.00039   0.00060  -0.00007  -0.00024
           D3           0.00024   0.00014   0.00022  -0.00003  -0.00009
                          A5        A6        A7        A8        A9
           A5           0.16112
           A6           0.00104   0.16098
           A7          -0.00248  -0.00225   0.15976
           A8           0.00705   0.00670  -0.02376   0.03541
           A9           0.00002   0.00001  -0.00005   0.00008   0.00230
           D1           0.00046   0.00043  -0.00151   0.00218   0.00001
           D2          -0.00034  -0.00033   0.00114  -0.00164  -0.00000
           D3          -0.00013  -0.00012   0.00042  -0.00060  -0.00000
                          D1        D2        D3
           D1           0.00244
           D2          -0.00011   0.00238
           D3          -0.00004   0.00003   0.00231
 ITU=  1  0
 Use linear search instead of GDIIS.
     Eigenvalues ---    0.00230   0.00230   0.00324   0.09545   0.10370
     Eigenvalues ---    0.12211   0.13975   0.15841   0.16000   0.16000
     Eigenvalues ---    0.18115   0.25321   0.35344   0.35583   0.35599
 RFO step:  Lambda=-1.50745520D-02 EMin= 2.29993654D-03
 Quartic linear search produced a step of -0.18593.
 Maximum step size (   0.505) exceeded in Quadratic search.
    -- Step size scaled by   0.573
 Iteration  1 RMS(Cart)=  0.17925070 RMS(Int)=  0.06134147
 Iteration  2 RMS(Cart)=  0.13009063 RMS(Int)=  0.01478453
 Iteration  3 RMS(Cart)=  0.03747091 RMS(Int)=  0.00412914
 Iteration  4 RMS(Cart)=  0.00063619 RMS(Int)=  0.00410246
 Iteration  5 RMS(Cart)=  0.00000222 RMS(Int)=  0.00410246
 Iteration  6 RMS(Cart)=  0.00000002 RMS(Int)=  0.00410246
 Variable       Old X    -DE/DX   Delta X   Delta X   Delta X     New X
                                 (Linear)    (Quad)   (Total)
    R1        3.91462   0.00106   0.02794  -0.14885  -0.12095   3.79367
    R2        2.07432  -0.00026  -0.00507   0.02880   0.02373   2.09805
    R3        2.07453  -0.00018  -0.00506   0.02885   0.02379   2.09832
    R4        2.07474  -0.00038  -0.00507   0.02863   0.02356   2.09830
    R5        4.47835  -0.00494   0.02986  -0.17845  -0.14855   4.32980
    R6        2.53415   0.00109   0.00536  -0.02842  -0.02306   2.51109
    A1        1.89744   0.00289   0.00232  -0.00389  -0.00439   1.89304
    A2        1.89432   0.00508   0.00265   0.00054   0.00434   1.89865
    A3        1.89875  -0.00233   0.00163  -0.01746  -0.01331   1.88544
    A4        1.92448  -0.00098  -0.00206   0.01229   0.00350   1.92798
    A5        1.92471  -0.00230  -0.00223   0.00339   0.00037   1.92508
    A6        1.92349  -0.00219  -0.00221   0.00454   0.00900   1.93249
    A7        1.65701   0.00135   0.01464  -0.07710  -0.06247   1.59454
    A8        3.32103  -0.01817  -0.02881  -0.43672  -0.46662   2.85440
    A9        3.14313  -0.00002  -0.00035  -0.00130   0.00004   3.14317
    D1        1.41051  -0.00116  -0.00513  -0.07551  -0.07561   1.33491
    D2       -0.73980   0.00085   0.00354   0.05976   0.05175  -0.68805
    D3       -2.81811   0.00037   0.00121   0.01721   0.02428  -2.79383
         Item               Value     Threshold  Converged?
 Maximum Force            0.018170     0.000450     NO 
 RMS     Force            0.004783     0.000300     NO 
 Maximum Displacement     0.863376     0.001800     NO 
 RMS     Displacement     0.342302     0.001200     NO 
 Predicted change in Energy=-8.451037D-03
 GradGradGradGradGradGradGradGradGradGradGradGradGradGradGradGradGradGrad

                          Input orientation:                          
 ---------------------------------------------------------------------
 Center     Atomic      Atomic             Coordinates (Angstroms)
 Number     Number       Type             X           Y           Z
 ---------------------------------------------------------------------
      1          6           0       -9.186768    1.353568   -0.001588
      2         80           0       -7.260450    1.918764   -0.000471
      3          1           0       -9.468638    1.063305    1.032302
      4          1           0       -9.306452    0.492820   -0.692775
      5          1           0       -9.797967    2.216796   -0.339530
      6         16           0       -4.969222    1.914658    0.002285
      7          1           0       -4.940053    0.586168   -0.000232
 ---------------------------------------------------------------------
                    Distance matrix (angstroms):
                    1          2          3          4          5
     1  C    0.000000
     2  Hg   2.007524   0.000000
     3  H    1.110239   2.583510   0.000000
     4  H    1.110383   2.588190   1.824185   0.000000
     5  H    1.110375   2.577359   1.822340   1.827146   0.000000
     6  S    4.254708   2.291234   4.693664   4.616958   4.850248
     7  H    4.315495   2.675828   4.669247   4.421965   5.135504
                    6          7
     6  S    0.000000
     7  H    1.328812   0.000000
 Stoichiometry    CH4HgS
 Framework group  C1[X(CH4HgS)]
 Deg. of freedom    15
 Full point group                 C1      NOp   1
 Largest Abelian subgroup         C1      NOp   1
 Largest concise Abelian subgroup C1      NOp   1
                         Standard orientation:                         
 ---------------------------------------------------------------------
 Center     Atomic      Atomic             Coordinates (Angstroms)
 Number     Number       Type             X           Y           Z
 ---------------------------------------------------------------------
      1          6           0        2.152017    0.344288    0.000414
      2         80           0        0.189413   -0.078007   -0.000225
      3          1           0        2.453553    0.612855    1.034618
      4          1           0        2.335137    1.194082   -0.690433
      5          1           0        2.698500   -0.561395   -0.337263
      6         16           0       -2.095337    0.094248    0.000632
      7          1           0       -2.026923    1.421296   -0.001537
 ---------------------------------------------------------------------
 Rotational constants (GHZ):          58.5125824           2.2177265           2.1674191
 Standard basis: def2SVP (5D, 7F)
 There are    91 symmetry adapted cartesian basis functions of A   symmetry.
 There are    84 symmetry adapted basis functions of A   symmetry.
    84 basis functions,   155 primitive gaussians,    91 cartesian basis functions
    23 alpha electrons       23 beta electrons
       nuclear repulsion energy       156.0009631827 Hartrees.
 NAtoms=    7 NActive=    7 NUniq=    7 SFac= 1.00D+00 NAtFMM=   60 NAOKFM=F Big=F
 Integral buffers will be    131072 words long.
 Raffenetti 1 integral format.
 Two-electron integral symmetry is turned on.
 One-electron integrals computed using PRISM.
 PrsmSu:  requested number of processors reduced to:  13 ShMem   1 Linda.
   1 Symmetry operations used in ECPInt.
 ECPInt:  NShTT=     741 NPrTT=    2476 LenC2=     734 LenP2D=    2110.
 LDataN:  DoStor=T MaxTD1= 8 Len=  415
 NBasis=    84 RedAO= T EigKep=  8.16D-03  NBF=    84
 NBsUse=    84 1.00D-06 EigRej= -1.00D+00 NBFU=    84
 Initial guess from the checkpoint file:  "ch3hgSH_gas_apfd_def2svp.chk"
 B after Tr=    -0.000000   -0.000000   -0.000000
         Rot=    0.999997    0.002014    0.000024   -0.001011 Ang=   0.26 deg.
 ExpMin= 5.64D-02 ExpMax= 9.18D+03 ExpMxC= 1.38D+03 IAcc=2 IRadAn=         4 AccDes= 0.00D+00
 Harris functional with IExCor=  205 and IRadAn=       4 diagonalized for initial guess.
 HarFok:  IExCor=  205 AccDes= 0.00D+00 IRadAn=         4 IDoV= 1 UseB2=F ITyADJ=14
 ICtDFT=  3500011 ScaDFX=  1.000000  1.000000  1.000000  1.000000
 Defaulting to unpruned grid for atomic number  80.
 FoFCou: FMM=F IPFlag=           0 FMFlag=      100000 FMFlg1=           0
         NFxFlg=           0 DoJE=T BraDBF=F KetDBF=T FulRan=T
         wScrn=  0.000000 ICntrl=       500 IOpCl=  0 I1Cent=   200000004 NGrid=           0
         NMat0=    1 NMatS0=      1 NMatT0=    0 NMatD0=    1 NMtDS0=    0 NMtDT0=    0
 Petite list used in FoFCou.
 Keep R1 ints in memory in canonical form, NReq=18107902.
 Requested convergence on RMS density matrix=1.00D-08 within  32 cycles.
 Requested convergence on MAX density matrix=1.00D-06.
 Requested convergence on             energy=1.00D-06.
 No special actions if energy rises.
 SCF Done:  E(RHF) =  -590.077712011     A.U. after   13 cycles
            NFock= 13  Conv=0.85D-08     -V/T= 2.2082
 QCSCF skips out because SCF is already converged.
 ExpMin= 5.64D-02 ExpMax= 9.18D+03 ExpMxC= 1.38D+03 IAcc=3 IRadAn=         5 AccDes= 0.00D+00
 HarFok:  IExCor=  205 AccDes= 0.00D+00 IRadAn=         5 IDoV=-2 UseB2=F ITyADJ=14
 ICtDFT= 12500011 ScaDFX=  1.000000  1.000000  1.000000  1.000000
 Defaulting to unpruned grid for atomic number  80.
 Range of M.O.s used for correlation:     7    84
 NBasis=    84 NAE=    23 NBE=    23 NFC=     6 NFV=     0
 NROrb=     78 NOA=    17 NOB=    17 NVA=    61 NVB=    61
 Disk-based method using ON**2 memory for 17 occupieds at a time.
 Estimated scratch disk usage=    24918832 words.
 Actual    scratch disk usage=    23402288 words.
 GetIJB would need an additional   280347820 words of memory to use all  24 processors.
 JobTyp=1 Pass  1:  I=   7 to  23 NPSUse=  6 ParTrn=T ParDer=T DoDerP=T.
 (rs|ai) integrals will be sorted in core.
 Spin components of T(2) and E(2):
     alpha-alpha T2 =       0.3089421388D-01 E2=     -0.1020351525D+00
     alpha-beta  T2 =       0.1488270107D+00 E2=     -0.4650983916D+00
     beta-beta   T2 =       0.3089421388D-01 E2=     -0.1020351525D+00
 ANorm=    0.1100279709D+01
 E2 =    -0.6691686965D+00 EUMP2 =    -0.59074688070792D+03
          IDoAtm=1111111
          Differentiating once with respect to electric field.
                with respect to dipole field.
          Differentiating once with respect to nuclear coordinates.
 Keep R1 ints in memory in canonical form, NReq=18109976.
          There are     1 degrees of freedom in the 1st order CPHF.  IDoFFX=0 NUNeed=     1.
 LinEq1:  Iter=  0 NonCon=     1 RMS=6.87D-03 Max=9.98D-02 NDo=     1
 AX will form     1 AO Fock derivatives at one time.
 LinEq1:  Iter=  1 NonCon=     1 RMS=1.57D-03 Max=1.98D-02 NDo=     1
 LinEq1:  Iter=  2 NonCon=     1 RMS=5.40D-04 Max=5.56D-03 NDo=     1
 LinEq1:  Iter=  3 NonCon=     1 RMS=1.14D-04 Max=1.07D-03 NDo=     1
 LinEq1:  Iter=  4 NonCon=     1 RMS=2.90D-05 Max=3.09D-04 NDo=     1
 LinEq1:  Iter=  5 NonCon=     1 RMS=9.87D-06 Max=1.48D-04 NDo=     1
 LinEq1:  Iter=  6 NonCon=     1 RMS=3.53D-06 Max=5.03D-05 NDo=     1
 LinEq1:  Iter=  7 NonCon=     1 RMS=1.05D-06 Max=1.49D-05 NDo=     1
 LinEq1:  Iter=  8 NonCon=     1 RMS=2.22D-07 Max=2.13D-06 NDo=     1
 LinEq1:  Iter=  9 NonCon=     1 RMS=7.54D-08 Max=1.37D-06 NDo=     1
 LinEq1:  Iter= 10 NonCon=     1 RMS=2.31D-08 Max=3.25D-07 NDo=     1
 LinEq1:  Iter= 11 NonCon=     1 RMS=6.29D-09 Max=5.93D-08 NDo=     1
 LinEq1:  Iter= 12 NonCon=     1 RMS=1.60D-09 Max=1.43D-08 NDo=     1
 LinEq1:  Iter= 13 NonCon=     1 RMS=3.20D-10 Max=3.50D-09 NDo=     1
 LinEq1:  Iter= 14 NonCon=     0 RMS=6.51D-11 Max=8.19D-10 NDo=     1
 Linear equations converged to 1.000D-10 1.000D-09 after    14 iterations.
 End of Minotr F.D. properties file   721 does not exist.
 End of Minotr F.D. properties file   722 does not exist.
 End of Minotr F.D. properties file   788 does not exist.
 PrsmSu:  requested number of processors reduced to:  13 ShMem   1 Linda.
   1 Symmetry operations used in ECPInt.
 ECPInt:  NShTT=     741 NPrTT=    2476 LenC2=     734 LenP2D=    2110.
 LDataN:  DoStor=T MaxTD1= 9 Len=  602
 Calling FoFJK, ICntrl=  10002127 FMM=F ISym2X=0 I1Cent= 0 IOpClX= 0 NMat=1 NMatS=1 NMatT=0.
 ***** Axes restored to original set *****
 -------------------------------------------------------------------
 Center     Atomic                   Forces (Hartrees/Bohr)
 Number     Number              X              Y              Z
 -------------------------------------------------------------------
      1        6          -0.025491475    0.006716205    0.001076402
      2       80           0.009038038   -0.014149591   -0.000249356
      3        1          -0.001159892    0.001725336   -0.008737822
      4        1          -0.000471992    0.007114668    0.005051721
      5        1          -0.002129961   -0.010652559    0.002795386
      6       16           0.021208073    0.017388086    0.000071820
      7        1          -0.000992793   -0.008142145   -0.000008152
 -------------------------------------------------------------------
 Cartesian Forces:  Max     0.025491475 RMS     0.009953020

 GradGradGradGradGradGradGradGradGradGradGradGradGradGradGradGradGradGrad
 Berny optimization.
 Using GEDIIS/GDIIS optimizer.
 FormGI is forming the generalized inverse of G from B-inverse, IUseBI=4.
 Internal  Forces:  Max     0.036801289 RMS     0.012901187
 Search for a local minimum.
 Step number   3 out of a maximum of   28
 All quantities printed in internal units (Hartrees-Bohrs-Radians)
 Mixed Optimization -- RFO/linear search
 Update second derivatives using D2CorX and points    1    3    2
 DE=  6.96D-03 DEPred=-8.45D-03 R=-8.24D-01
 Trust test=-8.24D-01 RLast= 5.19D-01 DXMaxT set to 2.52D-01
 The second derivative matrix:
                          R1        R2        R3        R4        R5
           R1           0.13572
           R2           0.00143   0.35453
           R3           0.00108  -0.00144   0.35453
           R4           0.00178  -0.00161  -0.00152   0.35409
           R5          -0.00008   0.00372   0.00349   0.00392   0.12972
           R6          -0.00068   0.00076   0.00066   0.00086  -0.00103
           A1          -0.00073  -0.00030  -0.00035  -0.00024   0.00171
           A2          -0.00938   0.00184   0.00182   0.00189  -0.00254
           A3           0.01024  -0.00245  -0.00259  -0.00231   0.00720
           A4           0.00011   0.00008   0.00017  -0.00002  -0.00200
           A5           0.00300  -0.00053  -0.00045  -0.00063  -0.00083
           A6          -0.00287   0.00124   0.00128   0.00119  -0.00317
           A7          -0.01434   0.00552   0.00554   0.00548  -0.01457
           A8           0.02111  -0.00152  -0.00215  -0.00088   0.01468
           A9          -0.00001   0.00001   0.00001   0.00002  -0.00003
           D1           0.00150  -0.00015  -0.00018  -0.00012   0.00076
           D2          -0.00095   0.00006   0.00008   0.00004  -0.00043
           D3          -0.00057   0.00009   0.00010   0.00008  -0.00035
                          R6        A1        A2        A3        A4
           R6           0.25109
           A1          -0.00028   0.15912
           A2          -0.00298  -0.00289   0.15420
           A3           0.00279   0.00116  -0.00075   0.16544
           A4           0.00031   0.00103   0.00359  -0.00244   0.15932
           A5           0.00119   0.00175   0.00470  -0.00176  -0.00164
           A6          -0.00092  -0.00016   0.00106  -0.00146   0.00009
           A7          -0.00458  -0.00096  -0.00192  -0.00239   0.00255
           A8           0.00368  -0.00041  -0.00972   0.02157  -0.00671
           A9          -0.00001  -0.00000  -0.00000   0.00001  -0.00001
           D1           0.00033   0.00016  -0.00011   0.00107  -0.00053
           D2          -0.00019  -0.00009   0.00010  -0.00075   0.00036
           D3          -0.00014  -0.00005   0.00005  -0.00037   0.00017
                          A5        A6        A7        A8        A9
           A5           0.15725
           A6          -0.00030   0.16072
           A7           0.00270  -0.00000   0.15377
           A8          -0.00292  -0.00130  -0.02004   0.10772
           A9          -0.00001   0.00000  -0.00003   0.00009   0.00230
           D1          -0.00042  -0.00013  -0.00089   0.00553   0.00000
           D2           0.00028   0.00007   0.00069  -0.00396  -0.00000
           D3           0.00013   0.00006   0.00026  -0.00180  -0.00000
                          D1        D2        D3
           D1           0.00257
           D2          -0.00019   0.00244
           D3          -0.00009   0.00006   0.00233
 ITU= -1  1  0
 Use linear search instead of GDIIS.
     Eigenvalues ---    0.00230   0.00230   0.08164   0.09616   0.11019
     Eigenvalues ---    0.12141   0.13178   0.15286   0.15881   0.16001
     Eigenvalues ---    0.19393   0.25174   0.35214   0.35585   0.35599
 RFO step:  Lambda=-1.19127942D-03 EMin= 2.29992243D-03
 Quartic linear search produced a step of -0.70206.
 Iteration  1 RMS(Cart)=  0.19492969 RMS(Int)=  0.02390212
 Iteration  2 RMS(Cart)=  0.05958135 RMS(Int)=  0.00215482
 Iteration  3 RMS(Cart)=  0.00298552 RMS(Int)=  0.00114777
 Iteration  4 RMS(Cart)=  0.00000025 RMS(Int)=  0.00114777
 Variable       Old X    -DE/DX   Delta X   Delta X   Delta X     New X
                                 (Linear)    (Quad)   (Total)
    R1        3.79367   0.02667   0.08491   0.06973   0.15465   3.94832
    R2        2.09805  -0.00829  -0.01666  -0.00809  -0.02475   2.07330
    R3        2.09832  -0.00861  -0.01670  -0.00816  -0.02486   2.07346
    R4        2.09830  -0.00796  -0.01654  -0.00807  -0.02461   2.07369
    R5        4.32980   0.02021   0.10429   0.02130   0.12559   4.45540
    R6        2.51109   0.00812   0.01619   0.01367   0.02986   2.54095
    A1        1.89304   0.00357   0.00308   0.01993   0.02386   1.91691
    A2        1.89865  -0.00202  -0.00305   0.02231   0.01842   1.91707
    A3        1.88544   0.01249   0.00935   0.01306   0.02169   1.90713
    A4        1.92798  -0.00490  -0.00246  -0.01739  -0.01914   1.90885
    A5        1.92508  -0.00333  -0.00026  -0.01869  -0.01798   1.90710
    A6        1.93249  -0.00521  -0.00632  -0.01706  -0.02580   1.90669
    A7        1.59454  -0.00294   0.04386   0.00357   0.04742   1.64196
    A8        2.85440   0.03680   0.32760  -0.04959   0.27811   3.13252
    A9        3.14317   0.00001  -0.00003  -0.00384  -0.00430   3.13888
    D1        1.33491   0.00190   0.05308  -0.00669   0.04660   1.38151
    D2       -0.68805  -0.00130  -0.03633   0.00594  -0.02783  -0.71588
    D3       -2.79383  -0.00066  -0.01705   0.00625  -0.01356  -2.80739
         Item               Value     Threshold  Converged?
 Maximum Force            0.036801     0.000450     NO 
 RMS     Force            0.012901     0.000300     NO 
 Maximum Displacement     0.638908     0.001800     NO 
 RMS     Displacement     0.242353     0.001200     NO 
 Predicted change in Energy=-2.508709D-03
 GradGradGradGradGradGradGradGradGradGradGradGradGradGradGradGradGradGrad

                          Input orientation:                          
 ---------------------------------------------------------------------
 Center     Atomic      Atomic             Coordinates (Angstroms)
 Number     Number       Type             X           Y           Z
 ---------------------------------------------------------------------
      1          6           0       -9.283385    1.349434    0.000582
      2         80           0       -7.216645    1.656044    0.002410
      3          1           0       -9.623824    1.101883    1.013763
      4          1           0       -9.537219    0.526853   -0.679738
      5          1           0       -9.785088    2.265377   -0.336342
      6         16           0       -4.881433    1.980866    0.001301
      7          1           0       -4.601957    0.665621   -0.001984
 ---------------------------------------------------------------------
                    Distance matrix (angstroms):
                    1          2          3          4          5
     1  C    0.000000
     2  Hg   2.089360   0.000000
     3  H    1.097141   2.669165   0.000000
     4  H    1.097227   2.669356   1.790561   0.000000
     5  H    1.097349   2.661378   1.789556   1.789365   0.000000
     6  S    4.447008   2.357695   4.928282   4.924866   4.923492
     7  H    4.731106   2.795988   5.142102   4.983514   5.434690
                    6          7
     6  S    0.000000
     7  H    1.344613   0.000000
 Stoichiometry    CH4HgS
 Framework group  C1[X(CH4HgS)]
 Deg. of freedom    15
 Full point group                 C1      NOp   1
 Largest Abelian subgroup         C1      NOp   1
 Largest concise Abelian subgroup C1      NOp   1
                         Standard orientation:                         
 ---------------------------------------------------------------------
 Center     Atomic      Atomic             Coordinates (Angstroms)
 Number     Number       Type             X           Y           Z
 ---------------------------------------------------------------------
      1          6           0        2.279921    0.049975   -0.001293
      2         80           0        0.191436   -0.010479    0.000360
      3          1           0        2.647229    0.251923    1.012620
      4          1           0        2.629086    0.839296   -0.678761
      5          1           0        2.669963   -0.917568   -0.341737
      6         16           0       -2.165793   -0.057308   -0.000869
      7          1           0       -2.288025    1.281737    0.000706
 ---------------------------------------------------------------------
 Rotational constants (GHZ):         100.8241562           2.0390293           2.0244782
 Standard basis: def2SVP (5D, 7F)
 There are    91 symmetry adapted cartesian basis functions of A   symmetry.
 There are    84 symmetry adapted basis functions of A   symmetry.
    84 basis functions,   155 primitive gaussians,    91 cartesian basis functions
    23 alpha electrons       23 beta electrons
       nuclear repulsion energy       151.3305827373 Hartrees.
 NAtoms=    7 NActive=    7 NUniq=    7 SFac= 1.00D+00 NAtFMM=   60 NAOKFM=F Big=F
 Integral buffers will be    131072 words long.
 Raffenetti 1 integral format.
 Two-electron integral symmetry is turned on.
 One-electron integrals computed using PRISM.
 PrsmSu:  requested number of processors reduced to:  13 ShMem   1 Linda.
   1 Symmetry operations used in ECPInt.
 ECPInt:  NShTT=     741 NPrTT=    2476 LenC2=     734 LenP2D=    2090.
 LDataN:  DoStor=T MaxTD1= 8 Len=  415
 NBasis=    84 RedAO= T EigKep=  8.44D-03  NBF=    84
 NBsUse=    84 1.00D-06 EigRej= -1.00D+00 NBFU=    84
 Lowest energy guess from the checkpoint file:  "ch3hgSH_gas_apfd_def2svp.chk"
 B after Tr=    -0.000000    0.000000    0.000000
         Rot=    0.999999   -0.000800   -0.000051    0.001309 Ang=  -0.18 deg.
 B after Tr=     0.000000   -0.000000    0.000000
         Rot=    1.000000    0.000652   -0.000076   -0.000137 Ang=   0.08 deg.
 Keep R1 ints in memory in canonical form, NReq=18106030.
 Requested convergence on RMS density matrix=1.00D-08 within  32 cycles.
 Requested convergence on MAX density matrix=1.00D-06.
 Requested convergence on             energy=1.00D-06.
 No special actions if energy rises.
 SCF Done:  E(RHF) =  -590.091121203     A.U. after   12 cycles
            NFock= 12  Conv=0.52D-08     -V/T= 2.2085
 QCSCF skips out because SCF is already converged.
 ExpMin= 5.64D-02 ExpMax= 9.18D+03 ExpMxC= 1.38D+03 IAcc=3 IRadAn=         5 AccDes= 0.00D+00
 HarFok:  IExCor=  205 AccDes= 0.00D+00 IRadAn=         5 IDoV=-2 UseB2=F ITyADJ=14
 ICtDFT= 12500011 ScaDFX=  1.000000  1.000000  1.000000  1.000000
 Defaulting to unpruned grid for atomic number  80.
 Range of M.O.s used for correlation:     7    84
 NBasis=    84 NAE=    23 NBE=    23 NFC=     6 NFV=     0
 NROrb=     78 NOA=    17 NOB=    17 NVA=    61 NVB=    61
 Disk-based method using ON**2 memory for 17 occupieds at a time.
 Estimated scratch disk usage=    24821520 words.
 Actual    scratch disk usage=    23311120 words.
 GetIJB would need an additional   280340228 words of memory to use all  24 processors.
 JobTyp=1 Pass  1:  I=   7 to  23 NPSUse=  6 ParTrn=T ParDer=T DoDerP=T.
 (rs|ai) integrals will be sorted in core.
 Spin components of T(2) and E(2):
     alpha-alpha T2 =       0.3057632957D-01 E2=     -0.1007806847D+00
     alpha-beta  T2 =       0.1490097567D+00 E2=     -0.4627073281D+00
     beta-beta   T2 =       0.3057632957D-01 E2=     -0.1007806847D+00
 ANorm=    0.1100073823D+01
 E2 =    -0.6642686976D+00 EUMP2 =    -0.59075538990023D+03
          IDoAtm=1111111
          Differentiating once with respect to electric field.
                with respect to dipole field.
          Differentiating once with respect to nuclear coordinates.
 Keep R1 ints in memory in canonical form, NReq=18109001.
          There are     1 degrees of freedom in the 1st order CPHF.  IDoFFX=0 NUNeed=     1.
 LinEq1:  Iter=  0 NonCon=     1 RMS=7.08D-03 Max=1.37D-01 NDo=     1
 AX will form     1 AO Fock derivatives at one time.
 LinEq1:  Iter=  1 NonCon=     1 RMS=1.57D-03 Max=1.76D-02 NDo=     1
 LinEq1:  Iter=  2 NonCon=     1 RMS=5.44D-04 Max=6.57D-03 NDo=     1
 LinEq1:  Iter=  3 NonCon=     1 RMS=1.17D-04 Max=1.26D-03 NDo=     1
 LinEq1:  Iter=  4 NonCon=     1 RMS=3.01D-05 Max=3.48D-04 NDo=     1
 LinEq1:  Iter=  5 NonCon=     1 RMS=1.06D-05 Max=1.63D-04 NDo=     1
 LinEq1:  Iter=  6 NonCon=     1 RMS=3.28D-06 Max=4.37D-05 NDo=     1
 LinEq1:  Iter=  7 NonCon=     1 RMS=9.26D-07 Max=9.33D-06 NDo=     1
 LinEq1:  Iter=  8 NonCon=     1 RMS=1.87D-07 Max=1.84D-06 NDo=     1
 LinEq1:  Iter=  9 NonCon=     1 RMS=5.21D-08 Max=5.91D-07 NDo=     1
 LinEq1:  Iter= 10 NonCon=     1 RMS=1.48D-08 Max=1.42D-07 NDo=     1
 LinEq1:  Iter= 11 NonCon=     1 RMS=4.44D-09 Max=5.09D-08 NDo=     1
 LinEq1:  Iter= 12 NonCon=     1 RMS=1.37D-09 Max=1.10D-08 NDo=     1
 LinEq1:  Iter= 13 NonCon=     1 RMS=2.79D-10 Max=2.46D-09 NDo=     1
 LinEq1:  Iter= 14 NonCon=     0 RMS=5.51D-11 Max=7.47D-10 NDo=     1
 Linear equations converged to 1.000D-10 1.000D-09 after    14 iterations.
 End of Minotr F.D. properties file   721 does not exist.
 End of Minotr F.D. properties file   722 does not exist.
 End of Minotr F.D. properties file   788 does not exist.
 PrsmSu:  requested number of processors reduced to:  13 ShMem   1 Linda.
   1 Symmetry operations used in ECPInt.
 ECPInt:  NShTT=     741 NPrTT=    2476 LenC2=     734 LenP2D=    2090.
 LDataN:  DoStor=T MaxTD1= 9 Len=  602
 Calling FoFJK, ICntrl=  10002127 FMM=F ISym2X=0 I1Cent= 0 IOpClX= 0 NMat=1 NMatS=1 NMatT=0.
 ***** Axes restored to original set *****
 -------------------------------------------------------------------
 Center     Atomic                   Forces (Hartrees/Bohr)
 Number     Number              X              Y              Z
 -------------------------------------------------------------------
      1        6           0.005356148    0.002138616    0.000313619
      2       80          -0.002609769   -0.002961049   -0.000107811
      3        1           0.000282088    0.000003724    0.000542599
      4        1           0.000591359   -0.000297628   -0.000546978
      5        1          -0.000433620    0.000304859   -0.000241310
      6       16          -0.002170126    0.000105876    0.000047242
      7        1          -0.001016080    0.000705601   -0.000007361
 -------------------------------------------------------------------
 Cartesian Forces:  Max     0.005356148 RMS     0.001642510

 GradGradGradGradGradGradGradGradGradGradGradGradGradGradGradGradGradGrad
 Berny optimization.
 Using GEDIIS/GDIIS optimizer.
 FormGI is forming the generalized inverse of G from B-inverse, IUseBI=4.
 Internal  Forces:  Max     0.006048788 RMS     0.001912379
 Search for a local minimum.
 Step number   4 out of a maximum of   28
 All quantities printed in internal units (Hartrees-Bohrs-Radians)
 Mixed Optimization -- RFO/linear search
 Update second derivatives using D2CorX and points    1    3    2    4
 DE= -1.55D-03 DEPred=-2.51D-03 R= 6.16D-01
 TightC=F SS=  1.41D+00  RLast= 2.02D-01 DXNew= 4.2426D-01 6.0614D-01
 Trust test= 6.16D-01 RLast= 2.02D-01 DXMaxT set to 4.24D-01
 The second derivative matrix:
                          R1        R2        R3        R4        R5
           R1           0.16652
           R2          -0.00482   0.35723
           R3          -0.00510   0.00121   0.35713
           R4          -0.00491   0.00115   0.00118   0.35690
           R5           0.01313  -0.00296  -0.00304  -0.00278   0.13256
           R6           0.00739  -0.00135  -0.00142  -0.00136   0.00612
           A1           0.00607  -0.00089  -0.00096  -0.00098   0.00941
           A2           0.00279  -0.00039  -0.00042  -0.00056   0.00944
           A3           0.00698  -0.00149  -0.00164  -0.00133   0.00716
           A4          -0.00381   0.00074   0.00083   0.00072  -0.00812
           A5          -0.00365   0.00079   0.00087   0.00082  -0.00876
           A6          -0.00742   0.00108   0.00115   0.00115  -0.00877
           A7          -0.00166  -0.00011   0.00003  -0.00020  -0.00794
           A8          -0.00626   0.00061   0.00002   0.00169   0.00192
           A9          -0.00028   0.00003   0.00003   0.00003   0.00004
           D1          -0.00065   0.00018   0.00015   0.00024  -0.00022
           D2           0.00079  -0.00019  -0.00017  -0.00023   0.00020
           D3          -0.00018   0.00002   0.00003   0.00000   0.00005
                          R6        A1        A2        A3        A4
           R6           0.25296
           A1           0.00006   0.15758
           A2          -0.00116  -0.00380   0.15459
           A3           0.00145  -0.00049  -0.00303   0.16521
           A4           0.00018   0.00252   0.00485  -0.00119   0.15792
           A5           0.00037   0.00286   0.00523  -0.00021  -0.00288
           A6          -0.00066   0.00154   0.00234  -0.00014  -0.00136
           A7           0.00099   0.00380   0.00616  -0.00288  -0.00130
           A8          -0.00096  -0.00326  -0.01736   0.02391  -0.00434
           A9          -0.00008  -0.00012  -0.00016   0.00001   0.00006
           D1          -0.00015  -0.00021  -0.00083   0.00124  -0.00029
           D2           0.00020   0.00026   0.00074  -0.00087   0.00013
           D3          -0.00007  -0.00009   0.00008  -0.00043   0.00019
                          A5        A6        A7        A8        A9
           A5           0.15635
           A6          -0.00151   0.15891
           A7          -0.00258  -0.00317   0.16118
           A8           0.00177  -0.00087  -0.02865   0.11206
           A9           0.00009   0.00010  -0.00001   0.00039   0.00230
           D1           0.00000   0.00007  -0.00165   0.00666   0.00002
           D2          -0.00009  -0.00015   0.00122  -0.00500  -0.00002
           D3           0.00012   0.00012   0.00052  -0.00178  -0.00001
                          D1        D2        D3
           D1           0.00268
           D2          -0.00029   0.00252
           D3          -0.00010   0.00008   0.00233
 ITU=  1 -1  1  0
 Use linear search instead of GDIIS.
     Eigenvalues ---    0.00230   0.00230   0.07777   0.09899   0.11099
     Eigenvalues ---    0.11832   0.14673   0.15929   0.16000   0.18068
     Eigenvalues ---    0.19037   0.25402   0.35583   0.35599   0.36019
 RFO step:  Lambda=-2.45484612D-04 EMin= 2.29979529D-03
 Quartic linear search produced a step of -0.16851.
 Iteration  1 RMS(Cart)=  0.01944198 RMS(Int)=  0.00022913
 Iteration  2 RMS(Cart)=  0.00025653 RMS(Int)=  0.00007828
 Iteration  3 RMS(Cart)=  0.00000004 RMS(Int)=  0.00007828
 Variable       Old X    -DE/DX   Delta X   Delta X   Delta X     New X
                                 (Linear)    (Quad)   (Total)
    R1        3.94832  -0.00605  -0.00568  -0.02810  -0.03378   3.91454
    R2        2.07330   0.00041   0.00017   0.00031   0.00048   2.07378
    R3        2.07346   0.00043   0.00018   0.00035   0.00053   2.07399
    R4        2.07369   0.00053   0.00018   0.00055   0.00073   2.07442
    R5        4.45540  -0.00304   0.00387  -0.02428  -0.02041   4.43499
    R6        2.54095  -0.00090  -0.00115  -0.00082  -0.00197   2.53898
    A1        1.91691  -0.00053  -0.00328   0.00319   0.00001   1.91691
    A2        1.91707  -0.00123  -0.00383   0.00067  -0.00319   1.91388
    A3        1.90713   0.00078  -0.00141   0.00476   0.00336   1.91049
    A4        1.90885   0.00036   0.00263  -0.00173   0.00096   1.90981
    A5        1.90710   0.00043   0.00297  -0.00231   0.00079   1.90789
    A6        1.90669   0.00020   0.00283  -0.00465  -0.00193   1.90476
    A7        1.64196  -0.00215   0.00254  -0.01285  -0.01031   1.63165
    A8        3.13252   0.00333   0.03177  -0.00832   0.02344   3.15596
    A9        3.13888   0.00009   0.00072   0.02182   0.02251   3.16139
    D1        1.38151   0.00019   0.00489   0.00276   0.00771   1.38921
    D2       -0.71588  -0.00019  -0.00403   0.00621   0.00233  -0.71356
    D3       -2.80739   0.00003  -0.00181   0.00467   0.00266  -2.80472
         Item               Value     Threshold  Converged?
 Maximum Force            0.006049     0.000450     NO 
 RMS     Force            0.001912     0.000300     NO 
 Maximum Displacement     0.044041     0.001800     NO 
 RMS     Displacement     0.019530     0.001200     NO 
 Predicted change in Energy=-1.903580D-04
 GradGradGradGradGradGradGradGradGradGradGradGradGradGradGradGradGradGrad

                          Input orientation:                          
 ---------------------------------------------------------------------
 Center     Atomic      Atomic             Coordinates (Angstroms)
 Number     Number       Type             X           Y           Z
 ---------------------------------------------------------------------
      1          6           0       -9.273043    1.350100    0.000836
      2         80           0       -7.220945    1.632739   -0.006621
      3          1           0       -9.611447    1.105310    1.015645
      4          1           0       -9.535179    0.529519   -0.679204
      5          1           0       -9.770063    2.269146   -0.335836
      6         16           0       -4.900882    1.986344    0.007043
      7          1           0       -4.617993    0.672921   -0.001872
 ---------------------------------------------------------------------
                    Distance matrix (angstroms):
                    1          2          3          4          5
     1  C    0.000000
     2  Hg   2.071484   0.000000
     3  H    1.097396   2.652868   0.000000
     4  H    1.097508   2.650498   1.791610   0.000000
     5  H    1.097735   2.647904   1.790580   1.788680   0.000000
     6  S    4.418216   2.346894   4.897235   4.906116   4.889423
     7  H    4.704048   2.774280   5.114380   4.965688   5.404007
                    6          7
     6  S    0.000000
     7  H    1.343573   0.000000
 Stoichiometry    CH4HgS
 Framework group  C1[X(CH4HgS)]
 Deg. of freedom    15
 Full point group                 C1      NOp   1
 Largest Abelian subgroup         C1      NOp   1
 Largest concise Abelian subgroup C1      NOp   1
                         Standard orientation:                         
 ---------------------------------------------------------------------
 Center     Atomic      Atomic             Coordinates (Angstroms)
 Number     Number       Type             X           Y           Z
 ---------------------------------------------------------------------
      1          6           0        2.262308    0.023824    0.010459
      2         80           0        0.191058   -0.004550   -0.002269
      3          1           0        2.625698    0.220561    1.027081
      4          1           0        2.624941    0.809081   -0.665110
      5          1           0        2.643510   -0.947771   -0.329701
      6         16           0       -2.154897   -0.070533    0.005271
      7          1           0       -2.274289    1.267721    0.002162
 ---------------------------------------------------------------------
 Rotational constants (GHZ):         101.3368032           2.0625381           2.0479635
 Standard basis: def2SVP (5D, 7F)
 There are    91 symmetry adapted cartesian basis functions of A   symmetry.
 There are    84 symmetry adapted basis functions of A   symmetry.
    84 basis functions,   155 primitive gaussians,    91 cartesian basis functions
    23 alpha electrons       23 beta electrons
       nuclear repulsion energy       152.1372750302 Hartrees.
 NAtoms=    7 NActive=    7 NUniq=    7 SFac= 1.00D+00 NAtFMM=   60 NAOKFM=F Big=F
 Integral buffers will be    131072 words long.
 Raffenetti 1 integral format.
 Two-electron integral symmetry is turned on.
 One-electron integrals computed using PRISM.
 PrsmSu:  requested number of processors reduced to:  13 ShMem   1 Linda.
   1 Symmetry operations used in ECPInt.
 ECPInt:  NShTT=     741 NPrTT=    2476 LenC2=     734 LenP2D=    2092.
 LDataN:  DoStor=T MaxTD1= 8 Len=  415
 NBasis=    84 RedAO= T EigKep=  8.33D-03  NBF=    84
 NBsUse=    84 1.00D-06 EigRej= -1.00D+00 NBFU=    84
 Initial guess from the checkpoint file:  "ch3hgSH_gas_apfd_def2svp.chk"
 B after Tr=    -0.000000   -0.000000   -0.000000
         Rot=    1.000000   -0.000000    0.000000    0.000000 Ang=  -0.00 deg.
 ExpMin= 5.64D-02 ExpMax= 9.18D+03 ExpMxC= 1.38D+03 IAcc=2 IRadAn=         4 AccDes= 0.00D+00
 Harris functional with IExCor=  205 and IRadAn=       4 diagonalized for initial guess.
 HarFok:  IExCor=  205 AccDes= 0.00D+00 IRadAn=         4 IDoV= 1 UseB2=F ITyADJ=14
 ICtDFT=  3500011 ScaDFX=  1.000000  1.000000  1.000000  1.000000
 Defaulting to unpruned grid for atomic number  80.
 FoFCou: FMM=F IPFlag=           0 FMFlag=      100000 FMFlg1=           0
         NFxFlg=           0 DoJE=T BraDBF=F KetDBF=T FulRan=T
         wScrn=  0.000000 ICntrl=       500 IOpCl=  0 I1Cent=   200000004 NGrid=           0
         NMat0=    1 NMatS0=      1 NMatT0=    0 NMatD0=    1 NMtDS0=    0 NMtDT0=    0
 Petite list used in FoFCou.
 Keep R1 ints in memory in canonical form, NReq=18106225.
 Requested convergence on RMS density matrix=1.00D-08 within  32 cycles.
 Requested convergence on MAX density matrix=1.00D-06.
 Requested convergence on             energy=1.00D-06.
 No special actions if energy rises.
 SCF Done:  E(RHF) =  -590.090377807     A.U. after    1 cycles
            NFock=  1  Conv=0.91D-09     -V/T= 2.2085
 QCSCF skips out because SCF is already converged.
 ExpMin= 5.64D-02 ExpMax= 9.18D+03 ExpMxC= 1.38D+03 IAcc=3 IRadAn=         5 AccDes= 0.00D+00
 HarFok:  IExCor=  205 AccDes= 0.00D+00 IRadAn=         5 IDoV=-2 UseB2=F ITyADJ=14
 ICtDFT= 12500011 ScaDFX=  1.000000  1.000000  1.000000  1.000000
 Defaulting to unpruned grid for atomic number  80.
 Range of M.O.s used for correlation:     7    84
 NBasis=    84 NAE=    23 NBE=    23 NFC=     6 NFV=     0
 NROrb=     78 NOA=    17 NOB=    17 NVA=    61 NVB=    61
 Disk-based method using ON**2 memory for 17 occupieds at a time.
 Estimated scratch disk usage=    24821520 words.
 Actual    scratch disk usage=    23311120 words.
 GetIJB would need an additional   280342208 words of memory to use all  24 processors.
 JobTyp=1 Pass  1:  I=   7 to  23 NPSUse=  6 ParTrn=T ParDer=T DoDerP=T.
 (rs|ai) integrals will be sorted in core.
 Spin components of T(2) and E(2):
     alpha-alpha T2 =       0.3063397359D-01 E2=     -0.1010279747D+00
     alpha-beta  T2 =       0.1489088861D+00 E2=     -0.4631536742D+00
     beta-beta   T2 =       0.3063397359D-01 E2=     -0.1010279747D+00
 ANorm=    0.1100080376D+01
 E2 =    -0.6652096236D+00 EUMP2 =    -0.59075558743055D+03
          IDoAtm=1111111
          Differentiating once with respect to electric field.
                with respect to dipole field.
          Differentiating once with respect to nuclear coordinates.
 Keep R1 ints in memory in canonical form, NReq=18109118.
          There are     1 degrees of freedom in the 1st order CPHF.  IDoFFX=0 NUNeed=     1.
 LinEq1:  Iter=  0 NonCon=     1 RMS=7.04D-03 Max=1.31D-01 NDo=     1
 AX will form     1 AO Fock derivatives at one time.
 LinEq1:  Iter=  1 NonCon=     1 RMS=1.57D-03 Max=1.79D-02 NDo=     1
 LinEq1:  Iter=  2 NonCon=     1 RMS=5.42D-04 Max=6.57D-03 NDo=     1
 LinEq1:  Iter=  3 NonCon=     1 RMS=1.16D-04 Max=1.22D-03 NDo=     1
 LinEq1:  Iter=  4 NonCon=     1 RMS=2.95D-05 Max=3.39D-04 NDo=     1
 LinEq1:  Iter=  5 NonCon=     1 RMS=1.03D-05 Max=1.61D-04 NDo=     1
 LinEq1:  Iter=  6 NonCon=     1 RMS=3.26D-06 Max=4.38D-05 NDo=     1
 LinEq1:  Iter=  7 NonCon=     1 RMS=9.28D-07 Max=9.91D-06 NDo=     1
 LinEq1:  Iter=  8 NonCon=     1 RMS=1.84D-07 Max=1.82D-06 NDo=     1
 LinEq1:  Iter=  9 NonCon=     1 RMS=5.04D-08 Max=5.49D-07 NDo=     1
 LinEq1:  Iter= 10 NonCon=     1 RMS=1.40D-08 Max=1.36D-07 NDo=     1
 LinEq1:  Iter= 11 NonCon=     1 RMS=4.21D-09 Max=5.20D-08 NDo=     1
 LinEq1:  Iter= 12 NonCon=     1 RMS=1.33D-09 Max=1.06D-08 NDo=     1
 LinEq1:  Iter= 13 NonCon=     1 RMS=2.73D-10 Max=2.25D-09 NDo=     1
 LinEq1:  Iter= 14 NonCon=     0 RMS=5.39D-11 Max=7.09D-10 NDo=     1
 Linear equations converged to 1.000D-10 1.000D-09 after    14 iterations.
 End of Minotr F.D. properties file   721 does not exist.
 End of Minotr F.D. properties file   722 does not exist.
[...]
 Sum of electronic and thermal Energies=              -590.703999
 Sum of electronic and thermal Enthalpies=            -590.703055
 Sum of electronic and thermal Free Energies=         -590.741391
 
                     E (Thermal)             CV                S
                      KCal/Mol        Cal/Mol-Kelvin    Cal/Mol-Kelvin
 Total                   32.391             16.941             80.685
 Electronic               0.000              0.000              0.000
 Translational            0.889              2.981             42.449
 Rotational               0.889              2.981             24.131
 Vibrational             30.614             10.980             14.105
 Vibration     1          0.593              1.984              5.854
 Vibration     2          0.613              1.921              2.905
 Vibration     3          0.613              1.920              2.902
 Vibration     4          0.732              1.560              1.134
 Vibration     5          0.918              1.114              0.520
                       Q            Log10(Q)             Ln(Q)
 Total Bot       0.285742D-06         -6.544025        -15.068175
 Total V=0       0.308693D+15         14.489526         33.363367
 Vib (Bot)       0.438976D-19        -19.357559        -44.572427
 Vib (Bot)    1  0.698783D+01          0.844342          1.944170
 Vib (Bot)    2  0.153405D+01          0.185839          0.427909
 Vib (Bot)    3  0.153123D+01          0.185040          0.426070
 Vib (Bot)    4  0.513868D+00         -0.289149         -0.665789
 Vib (Bot)    5  0.276084D+00         -0.558959         -1.287050
 Vib (V=0)       0.474234D+02          1.675992          3.859115
 Vib (V=0)    1  0.750570D+01          0.875391          2.015662
 Vib (V=0)    2  0.211347D+01          0.324997          0.748333
 Vib (V=0)    3  0.211080D+01          0.324446          0.747065
 Vib (V=0)    4  0.121698D+01          0.085283          0.196372
 Vib (V=0)    5  0.107116D+01          0.029854          0.068741
 Electronic      0.100000D+01          0.000000          0.000000
 Translational   0.155345D+09          8.191296         18.861156
 Rotational      0.419023D+05          4.622238         10.643096
 ***** Axes restored to original set *****
 -------------------------------------------------------------------
 Center     Atomic                   Forces (Hartrees/Bohr)
 Number     Number              X              Y              Z
 -------------------------------------------------------------------
      1        6           0.000008599   -0.000000397    0.000013237
      2       80          -0.000004234    0.000001700   -0.000004792
      3        1          -0.000005663   -0.000002032   -0.000002641
      4        1          -0.000002643   -0.000000920   -0.000002141
      5        1          -0.000000215    0.000001817   -0.000004203
      6       16           0.000003315   -0.000000048    0.000000627
      7        1           0.000000840   -0.000000120   -0.000000087
 -------------------------------------------------------------------
 Cartesian Forces:  Max     0.000013237 RMS     0.000004264
 FormGI is forming the generalized inverse of G from B-inverse, IUseBI=4.

 GradGradGradGradGradGradGradGradGradGradGradGradGradGradGradGradGradGrad
 Berny optimization.
 Internal  Forces:  Max     0.000011081 RMS     0.000003556
 Search for a local minimum.
 Step number   1 out of a maximum of    2
 All quantities printed in internal units (Hartrees-Bohrs-Radians)
 Second derivative matrix not updated -- analytic derivatives used.
 The second derivative matrix:
                          R1        R2        R3        R4        R5
           R1           0.16721
           R2           0.00166   0.36162
           R3           0.00176  -0.00078   0.36096
           R4           0.00166  -0.00079  -0.00078   0.36164
           R5           0.00556   0.00047   0.00059   0.00047   0.13903
           R6          -0.00017  -0.00000  -0.00004  -0.00000   0.00049
           A1           0.01157  -0.00008  -0.00598  -0.00571   0.00325
           A2           0.01128  -0.00589   0.00037  -0.00589   0.00303
           A3           0.01157  -0.00571  -0.00598  -0.00009   0.00325
           A4          -0.01163   0.00731   0.00742  -0.00291  -0.00326
           A5          -0.01151   0.00739  -0.00308   0.00739  -0.00309
           A6          -0.01163  -0.00291   0.00742   0.00731  -0.00326
           A7           0.00193  -0.00003   0.00034  -0.00003   0.01289
           A8          -0.00074   0.00111  -0.00231   0.00110  -0.00085
           A9           0.00000   0.00094   0.00000  -0.00094   0.00000
           D1          -0.00024   0.00003   0.00523  -0.00519  -0.00021
           D2           0.00000  -0.00532  -0.00000   0.00531   0.00000
           D3           0.00024   0.00519  -0.00523  -0.00003   0.00021
                          R6        A1        A2        A3        A4
           R6           0.28788
           A1          -0.00016   0.07978
           A2           0.00038  -0.01322   0.08078
           A3          -0.00016  -0.01224  -0.01322   0.07977
           A4          -0.00002  -0.02899  -0.02719   0.00123   0.06154
           A5          -0.00003  -0.02720  -0.00030  -0.02719  -0.00341
           A6          -0.00002   0.00123  -0.02720  -0.02899  -0.00255
           A7           0.00784  -0.00358   0.00745  -0.00358   0.00044
           A8          -0.00087   0.01378  -0.02753   0.01375  -0.00587
           A9          -0.00000   0.00977   0.00000  -0.00977   0.00173
           D1          -0.00003   0.00118   0.00386  -0.00498   0.01981
           D2           0.00000  -0.00578   0.00000   0.00578  -0.01969
           D3           0.00003   0.00498  -0.00386  -0.00118   0.00032
                          A5        A6        A7        A8        A9
           A5           0.06193
           A6          -0.00341   0.06154
           A7          -0.00113   0.00044   0.11245
           A8           0.01157  -0.00588  -0.02817   0.11735
           A9          -0.00000  -0.00173   0.00000   0.00000   0.02543
           D1          -0.01944  -0.00032  -0.00170   0.00357   0.00165
           D2           0.00000   0.01968  -0.00000   0.00000  -0.00314
           D3           0.01944  -0.01980   0.00170  -0.00357   0.00165
                          D1        D2        D3
           D1           0.01854
           D2          -0.00929   0.01813
           D3          -0.00895  -0.00929   0.01854
 ITU=  0
     Eigenvalues ---    0.00005   0.02208   0.05883   0.07266   0.08977
     Eigenvalues ---    0.09663   0.10572   0.11370   0.13828   0.16038
     Eigenvalues ---    0.18082   0.28828   0.36089   0.36286   0.36319
 Angle between quadratic step and forces=  77.38 d Iteration  1 RMS(Cart)=  0.00022790 RMS(Int)=  0.000 Iteration  1 RMS(Cart)=  0.00015635 RMS(Int)=  0.00000003
 Iteration  2 RMS(Cart)=  0.00000002 RMS(Int)=  0.00000000
 Variable       Old X    -DE/DX   Delta X   Delta X   Delta X     New X
                                 (Linear)    (Quad)   (Total)
    R1        3.91033  -0.00000   0.00000  -0.00001  -0.00001   3.91032
    R2        2.07486  -0.00000   0.00000  -0.00000  -0.00000   2.07486
    R3        2.07545   0.00000   0.00000   0.00001   0.00001   2.07546
    R4        2.07484   0.00000   0.00000   0.00001   0.00001   2.07486
    R5        4.43480   0.00000   0.00000   0.00002   0.00002   4.43483
    R6        2.53816   0.00000   0.00000   0.00000   0.00000   2.53816
    A1        1.91687   0.00001   0.00000   0.00013   0.00013   1.91699
    A2        1.91226   0.00000   0.00000  -0.00000  -0.00000   1.91226
    A3        1.91704  -0.00000   0.00000  -0.00005  -0.00005   1.91700
    A4        1.90459  -0.00000   0.00000  -0.00002  -0.00002   1.90457
    A5        1.90832  -0.00000   0.00000   0.00000   0.00000   1.90832
    A6        1.90463  -0.00000   0.00000  -0.00006  -0.00006   1.90457
    A7        1.63255   0.00000   0.00000   0.00002   0.00002   1.63257
    A8        3.15696   0.00000   0.00000  -0.00000  -0.00000   3.15696
    A9        3.14161   0.00000   0.00000  -0.00001  -0.00001   3.14159
    D1        2.09484  -0.00000   0.00000  -0.00040  -0.00040   2.09444
    D2        0.00049  -0.00000   0.00000  -0.00045  -0.00045   0.00004
    D3       -2.09403   0.00000   0.00000  -0.00035  -0.00035  -2.09437
         Item               Value     Threshold  Converged?
 Maximum Force            0.000011     0.000450     YES
 RMS     Force            0.000004     0.000300     YES
 Maximum Displacement     0.000334     0.001800     YES
 RMS     Displacement     0.000156     0.001200     YES
 Predicted change in Energy=-1.173817D-09
 Optimization completed.
    -- Stationary point found.
                           ----------------------------
                           !   Optimized Parameters   !
                           ! (Angstroms and Degrees)  !
 --------------------------                            --------------------------
 ! Name  Definition              Value          Derivative Info.                !
 --------------------------------------------------------------------------------
 ! R1    R(1,2)                  2.0693         -DE/DX =    0.0                 !
 ! R2    R(1,3)                  1.098          -DE/DX =    0.0                 !
 ! R3    R(1,4)                  1.0983         -DE/DX =    0.0                 !
 ! R4    R(1,5)                  1.098          -DE/DX =    0.0                 !
 ! R5    R(2,6)                  2.3468         -DE/DX =    0.0                 !
 ! R6    R(6,7)                  1.3431         -DE/DX =    0.0                 !
 ! A1    A(2,1,3)              109.8285         -DE/DX =    0.0                 !
 ! A2    A(2,1,4)              109.5646         -DE/DX =    0.0                 !
 ! A3    A(2,1,5)              109.8385         -DE/DX =    0.0                 !
 ! A4    A(3,1,4)              109.1251         -DE/DX =    0.0                 !
 ! A5    A(3,1,5)              109.3385         -DE/DX =    0.0                 !
 ! A6    A(4,1,5)              109.1272         -DE/DX =    0.0                 !
 ! A7    A(2,6,7)               93.5383         -DE/DX =    0.0                 !
 ! A8    L(1,2,6,7,-1)         180.8805         -DE/DX =    0.0                 !
 ! A9    L(1,2,6,7,-2)         180.0008         -DE/DX =    0.0                 !
 ! D1    D(3,1,6,7)            120.0256         -DE/DX =    0.0                 !
 ! D2    D(4,1,6,7)              0.028          -DE/DX =    0.0                 !
 ! D3    D(5,1,6,7)           -119.9788         -DE/DX =    0.0                 !
 --------------------------------------------------------------------------------
 GradGradGradGradGradG
 ---------------------------------------------------
 ----------------------------------------------------------------------

 Electric dipole moment (input orientation):
 (Debye = 10**-18 statcoulomb cm , SI units = C m)
                  (au)            (Debye)         (10**-30 SI)
   Tot        0.908768D+00      0.230986D+01      0.770485D+01
   x         -0.798250D+00     -0.202895D+01     -0.676785D+01
   y         -0.372950D+00     -0.947945D+00     -0.316200D+01
   z         -0.222628D+00     -0.565864D+00     -0.188752D+01

 Dipole polarizability, Alpha (input orientation).
 (esu units = cm**3 , SI units = C**2 m**2 J**-1)
 Alpha(0;0):
               (au)            (10**-24 esu)      (10**-40 SI)
   iso        0.588296D+02      0.871764D+01      0.969969D+01
   aniso      0.518450D+02      0.768264D+01      0.854809D+01
   xx         0.928470D+02      0.137585D+02      0.153084D+02
   yx         0.423666D+01      0.627808D+00      0.698531D+00
   yy         0.429114D+02      0.635882D+01      0.707514D+01
   zx         0.214399D+01      0.317706D+00      0.353496D+00
   zy         0.208444D+01      0.308882D+00      0.343677D+00
   zz         0.407303D+02      0.603561D+01      0.671552D+01

 ----------------------------------------------------------------------

 Dipole orientation:
     6         -7.41032543         -7.27813364         14.33974107
    80         -6.28736119         -6.45017509         10.68677630
     1         -9.34785340         -6.60392536         14.65032559
     1         -6.13994383         -6.34049545         15.68676357
     1         -7.33801353         -9.32821116         14.65106195
    16         -5.06519250         -5.54903240          6.52003670
     1         -3.10612903         -4.10486895          7.24026997

 Electric dipole moment (dipole orientation):
 (Debye = 10**-18 statcoulomb cm , SI units = C m)
                  (au)            (Debye)         (10**-30 SI)
   Tot        0.908768D+00      0.230986D+01      0.770485D+01
   x          0.000000D+00      0.000000D+00      0.000000D+00
   y          0.000000D+00      0.000000D+00      0.000000D+00
   z          0.908768D+00      0.230986D+01      0.770485D+01

 Dipole polarizability, Alpha (dipole orientation).
 (esu units = cm**3 , SI units = C**2 m**2 J**-1)
 Alpha(0;0):
               (au)            (10**-24 esu)      (10**-40 SI)
   iso        0.588296D+02      0.871764D+01      0.969969D+01
   aniso      0.518450D+02      0.768264D+01      0.854809D+01
   xx         0.471442D+02      0.698605D+01      0.777303D+01
   yx         0.566090D+01      0.838858D+00      0.933356D+00
   yy         0.436392D+02      0.646666D+01      0.719513D+01
   zx        -0.143784D+02     -0.213066D+01     -0.237068D+01
   zy        -0.106011D+02     -0.157092D+01     -0.174788D+01
   zz         0.857054D+02      0.127002D+02      0.141309D+02

 ----------------------------------------------------------------------

 Test job not archived.
 1\1\GINC-GRANADO-COMPUTE-13\Freq\RMP2-FC\def2SVP\C1H4Hg1S1\ROOT\14-Aug
 -2023\0\\#N Geom=AllCheck Guess=TCheck SCRF=Check Test GenChk RMP2(FC)
 /def2SVP Freq\\Optimization MeHgSH-gas-apfd-def2svp phase\\0,1\C,-9.27
 17497602,1.351674843,0.0049379925\Hg,-7.2209392159,1.5940588362,0.1363
 251597\H,-9.7026896718,1.2725880359,1.0116993469\H,-9.498577285,0.4354
 369379,-0.5565613017\H,-9.7160267245,2.2110804118,-0.514247655\S,-4.90
 01386669,1.8993304536,0.3040973803\H,-4.6194296757,0.7819094816,-0.386
 2599227\\Version=EM64L-G16RevA.03\State=1-A\HF=-590.0903386\MP2=-590.7
 55618\RMSD=8.923e-10\RMSF=4.264e-06\ZeroPoint=0.0457283\Thermal=0.0516
 188\Dipole=-0.7982501,-0.3729503,-0.2226282\DipoleDeriv=-0.1512814,0.0
 006234,0.0006428,0.0384792,-0.1426329,-0.0127763,0.0238591,-0.0124572,
 -0.1302969,1.3210735,0.0899706,0.0461361,0.0350546,0.2738244,0.0105991
 ,0.0123453,0.010124,0.2622429,-0.1108331,-0.0158831,0.081602,-0.021696
 3,0.059647,0.0121052,0.0238992,0.0071489,-0.0150232,-0.0643024,-0.0801
 902,-0.0482432,-0.0357987,-0.013828,-0.0458806,-0.0209239,-0.0454869,0
 .0334884,-0.112446,0.0652058,-0.0493833,0.010997,0.0085375,0.0327466,-
 0.0285428,0.037182,0.037722,-0.9181187,-0.0396941,-0.0191777,-0.023659
 9,-0.1705016,0.0880242,-0.0093138,0.0881639,-0.2587935,0.0359081,-0.02
 00324,-0.0115768,-0.003376,-0.0150463,-0.0848183,-0.0013231,-0.0846746
 ,0.0706603\Polar=92.8470118,4.2366605,42.9114108,2.1439869,2.0844362,4
 0.7303294\PG=C01 [X(C1H4Hg1S1)]\NImag=0\\0.34325993,-0.02620422,0.5522
 9541,-0.01422399,-0.00282220,0.55560932,-0.13579554,-0.01135434,-0.006
 10920,0.29121532,-0.01218397,-0.03821749,-0.00216462,0.02669222,0.0585
 0006,-0.00662096,-0.00217220,-0.03580563,0.01428618,0.00832027,0.04960
 523,-0.08113236,-0.00730867,0.12046703,-0.00893382,-0.00105662,0.01736
 164,0.08590480,-0.00679269,-0.04736210,0.02147905,-0.00090203,-0.00118
 682,0.00186953,0.00802735,0.04561497,0.10464027,0.01945959,-0.29421474
 ,-0.00242483,-0.00033923,0.00486487,-0.11378898,-0.02100704,0.31283286
 ,-0.04591801,-0.06100820,-0.03751713,-0.00544802,-0.01708084,-0.010467
 80,0.00198732,0.01178958,0.00606556,0.05082667,-0.04720031,-0.25208436
 ,-0.12665354,0.00028103,0.00052177,0.00101600,0.00063432,0.00331815,0.
 00449382,0.05286743,0.26534295,-0.02902553,-0.12653251,-0.12303370,0.0
 0021035,0.00116695,-0.00041873,-0.00775559,-0.02471941,-0.01179532,0.0
 3245293,0.13581433,0.12699637,-0.08413496,0.10676267,-0.06211677,-0.00
 912998,0.01490078,-0.00864213,0.00492610,-0.01160034,0.00623471,0.0021
 0513,-0.00667119,0.00403027,0.08895108,0.09284581,-0.22597604,0.108879
 79,-0.00271357,0.00434563,-0.00312205,0.00034281,-0.00054542,-0.002411
 29,0.01106352,-0.01682827,0.01458823,-0.10064515,0.24000343,-0.0545321
 3,0.11078166,-0.11261703,0.00040451,-0.00106546,-0.00046651,-0.0135390
 6,0.02264702,-0.01066206,0.00797696,-0.01437273,0.00823460,0.05979383,
 -0.11832767,0.11541100,0.00371664,0.00277909,0.00175920,-0.12520376,-0
 .02464329,-0.01420486,-0.00332702,-0.00049731,-0.00095989,-0.00221491,
 -0.00003798,-0.00000361,-0.00328869,-0.00109489,0.00002848,0.15395472,
 -0.00023029,0.01177320,0.00138484,-0.01162052,-0.02474444,-0.00655554,
 -0.00070791,0.00010256,-0.00019847,0.00246070,-0.00029116,-0.00020984,
 -0.00278467,-0.00100482,0.00041392,-0.02645589,0.21350665,-0.00009123,
 0.00135993,0.01036357,-0.00618731,-0.00644256,-0.01784438,-0.00274906,
 -0.00016634,-0.00106603,0.00153299,-0.00018839,-0.00011346,0.00064678,
 0.00036449,0.00000373,-0.01757663,0.12829590,0.08461811,0.00000430,-0.
 00366632,-0.00225912,-0.00670420,0.01337170,0.00828793,0.00057497,-0.0
 0002455,0.00023314,-0.00133817,0.00012670,0.00009117,0.00057133,0.0002
 0147,-0.00013260,-0.02363698,0.03933857,0.02442447,0.03052875,-0.00023
 432,-0.00042862,-0.00010333,-0.00038280,0.00078129,0.00064399,0.000068
 71,0.00005866,0.00000262,-0.00009219,0.00002092,-0.00010776,0.00003789
 ,0.00000548,-0.00007674,0.04995027,-0.19934199,-0.12322302,-0.04934757
 ,0.19890426,-0.00014643,-0.00007427,-0.00030179,-0.00017971,0.00052464
 ,0.00006515,0.00000402,-0.00010281,0.00004041,-0.00004351,-0.00010949,
 0.00013024,0.00005331,0.00002849,0.00009627,0.03095732,-0.12313080,-0.
 07596155,-0.03064499,0.12286424,0.07593128\\-0.00000860,0.00000040,-0.
 00001324,0.00000423,-0.00000170,0.00000479,0.00000566,0.00000203,0.000
 00264,0.00000264,0.00000092,0.00000214,0.00000022,-0.00000182,0.000004
 20,-0.00000332,0.00000005,-0.00000063,-0.00000084,0.00000012,0.0000000
 9\\\@


 JUST WHEN YOU THINK YOU'VE GOT THE WORLD ON A STRING,
 YOU FIND OUT IT'S YOUR LEASH.
 Job cpu time:       0 days  1 hours 12 minutes 34.8 seconds.
 Elapsed tim File lengths (MBytes):  RWF=    649 Int=      0 D File lengths (MBytes):  RWF=    649 Int=      0 D2E=      0 Chk=     25 Scr=      1
 Normal termination of Gaussian 16 at Mon Aug 14 17:26:06 2023.
d time:       0 days  0 hours 25 minutes  0.6 seconds.
 File lengths (MBytes):  RWF=    649 Int=      0 D2E=      0 Chk=     25 Scr=      1
 Normal termination of Gaussian 16 at Mon Aug 14 17:26:06 2023.
17:26:06 2023.
nation of Gaussian 16 at Mon Aug 14 17:25:59 2023.
.02363690,0.03933286,0.02443311,0.03052864,-0.00
 023431,-0.00042841,-0.00010323,-0.00038274,0.00078098,0.00064412,0.000
 06873,0.00005864,0.00000259,-0.00009216,0.00002093,-0.00010781,0.00003
 786,0.00000544,-0.00007680,0.04994313,-0.19928701,-0.12325062,-0.04934
 051,0.19884943,-0.00014645,-0.00007460,-0.00030199,-0.00017981,0.00052
 490,0.00006542,0.00000404,-0.00010272,0.00004043,-0.00004357,-0.000109
 44,0.00013023,0.00005331,0.00002855,0.00009630,0.03096835,-0.12315842,
 -0.07601661,-0.03065587,0.12289174,0.07598622\\-0.00001007,0.00000081,
 -0.00001401,0.00000520,-0.00000172,0.00000513,0.00000613,0.00000218,0.
 00000264,0.00000309,0.00000088,0.00000223,0.00000021,-0.00000219,0.000
 00462,-0.00000380,-0.00000010,-0.00000068,-0.00000076,0.00000013,0.000
 00007\\\@


 We find comfort among those who agree with us -- growth among those who don't.
 -- Frank A. Clark
 Job cpu time:       0 days  1 hours 16 minutes 10.9 seconds.
 Elapsed time:       0 days  0 hours 25 minutes  8.3 seconds.
 File lengths (MBytes):  RWF=    649 Int=      0 D2E=      0 Chk=     25 Scr=      1
 Normal termination of Gaussian 16 at Mon Aug 14 17:22:35 2023.
