 Entering Gaussian System, Link 0=g16
 Input=input.gjf
 Output=input.log
 Initial command:
 /opt/ohpc/pub/apps/gaussian/G16x86_64_legacy_CPUs_linux_binary/g16/l1.exe "/tmp/Gau-52996.inp" -scrdir="/tmp/"
 Entering Link 1 = /opt/ohpc/pub/apps/gaussian/G16x86_64_legacy_CPUs_linux_binary/g16/l1.exe PID=     53021.
  
 Copyright (c) 1988,1990,1992,1993,1995,1998,2003,2009,2016,
            Gaussian, Inc.  All Rights Reserved.
  
 This is part of the Gaussian(R) 16 program.  It is based on
 the Gaussian(R) 09 system (copyright 2009, Gaussian, Inc.),
 the Gaussian(R) 03 system (copyright 2003, Gaussian, Inc.),
 the Gaussian(R) 98 system (copyright 1998, Gaussian, Inc.),
 the Gaussian(R) 94 system (copyright 1995, Gaussian, Inc.),
 the Gaussian 92(TM) system (copyright 1992, Gaussian, Inc.),
 the Gaussian 90(TM) system (copyright 1990, Gaussian, Inc.),
 the Gaussian 88(TM) system (copyright 1988, Gaussian, Inc.),
 the Gaussian 86(TM) system (copyright 1986, Carnegie Mellon
 University), and the Gaussian 82(TM) system (copyright 1983,
 Carnegie Mellon University). Gaussian is a federally registered
 trademark of Gaussian, Inc.
  
 This software contains proprietary and confidential information,
 including trade secrets, belonging to Gaussian, Inc.
  
 This software is provided under written license and may be
 used, copied, transmitted, or stored only in accord with that
 written license.
  
 The following legend is applicable only to US Government
 contracts under FAR:
  
                    RESTRICTED RIGHTS LEGEND
  
 Use, reproduction and disclosure by the US Government is
 subject to restrictions as set forth in subparagraphs (a)
 and (c) of the Commercial Computer Software - Restricted
 Rights clause in FAR 52.227-19.
  
 Gaussian, Inc.
 340 Quinnipiac St., Bldg. 40, Wallingford CT 06492
  
  
 ---------------------------------------------------------------
 Warning -- This program may not be used in any manner that
 competes with the business of Gaussian, Inc. or will provide
 assistance to any competitor of Gaussian, Inc.  The licensee
 of this program is prohibited from giving any competitor of
 Gaussian, Inc. access to this program.  By using this program,
 the user acknowledges that Gaussian, Inc. is engaged in the
 business of creating and licensing software in the field of
 computational chemistry and represents and warrants to the
 licensee that it is not a competitor of Gaussian, Inc. and that
 it will not use this program in any manner prohibited above.
 ---------------------------------------------------------------
  

 Cite this work as:
 Gaussian 16, Revision A.03,
 M. J. Frisch, G. W. Trucks, H. B. Schlegel, G. E. Scuseria, 
 M. A. Robb, J. R. Cheeseman, G. Scalmani, V. Barone, 
 G. A. Petersson, H. Nakatsuji, X. Li, M. Caricato, A. V. Marenich, 
 J. Bloino, B. G. Janesko, R. Gomperts, B. Mennucci, H. P. Hratchian, 
 J. V. Ortiz, A. F. Izmaylov, J. L. Sonnenberg, D. Williams-Young, 
 F. Ding, F. Lipparini, F. Egidi, J. Goings, B. Peng, A. Petrone, 
 T. Henderson, D. Ranasinghe, V. G. Zakrzewski, J. Gao, N. Rega, 
 G. Zheng, W. Liang, M. Hada, M. Ehara, K. Toyota, R. Fukuda, 
 J. Hasegawa, M. Ishida, T. Nakajima, Y. Honda, O. Kitao, H. Nakai, 
 T. Vreven, K. Throssell, J. A. Montgomery, Jr., J. E. Peralta, 
 F. Ogliaro, M. J. Bearpark, J. J. Heyd, E. N. Brothers, K. N. Kudin, 
 V. N. Staroverov, T. A. Keith, R. Kobayashi, J. Normand, 
 K. Raghavachari, A. P. Rendell, J. C. Burant, S. S. Iyengar, 
 J. Tomasi, M. Cossi, J. M. Millam, M. Klene, C. Adamo, R. Cammi, 
 J. W. Ochterski, R. L. Martin, K. Morokuma, O. Farkas, 
 J. B. Foresman, and D. J. Fox, Gaussian, Inc., Wallingford CT, 2016.
 
 ******************************************
 Gaussian 16:  EM64L-G16RevA.03 25-Dec-2016
                25-Aug-2022 
 ******************************************
 %NProcShared=24
 Will use up to   24 processors via shared memory.
 %Chk=ch3hgI_gas_apfd_def2svp.chk
 ----------------------
 #Opt Freq apfd/Def2SVP
 ----------------------
 1/18=20,19=15,26=3,38=1/1,3;
 2/9=110,12=2,17=6,18=5,40=1/2;
 3/5=43,7=101,11=2,25=1,30=1,71=1,74=-44/1,2,3;
 4//1;
 5/5=2,38=5/2;
 6/7=2,8=2,9=2,10=2,28=1/1;
 7//1,2,3,16;
 1/18=20,19=15,26=3/3(2);
 2/9=110/2;
 99//99;
 2/9=110/2;
 3/5=43,7=101,11=2,25=1,30=1,71=1,74=-44/1,2,3;
 4/5=5,16=3,69=1/1;
 5/5=2,38=5/2;
 7//1,2,3,16;
 1/18=20,19=15,26=3/3(-5);
 2/9=110/2;
 6/7=2,8=2,9=2,10=2,19=2,28=1/1;
 99/9=1/99;
 -----------------------------------------
 Optimization MeHgI-gas-apfd-def2svp phase
 -----------------------------------------
 Symbolic Z-matrix:
 Charge =  0 Multiplicity = 1
 C                    -9.22193   2.73316   0. 
 Hg                   -7.1379    2.93396   0. 
 H                    -9.50822   1.85022   0.60756 
 H                    -9.5802    2.59779  -1.04117 
 H                    -9.68106   3.64528   0.43361 
 I                    -4.43019   3.19544   0. 
 

 GradGradGradGradGradGradGradGradGradGradGradGradGradGradGradGradGradGrad
 Berny optimization.
 Initialization pass.
                           ----------------------------
                           !    Initial Parameters    !
                           ! (Angstroms and Degrees)  !
 --------------------------                            --------------------------
 ! Name  Definition              Value          Derivative Info.                !
 --------------------------------------------------------------------------------
 ! R1    R(1,2)                  2.0937         estimate D2E/DX2                !
 ! R2    R(1,3)                  1.1094         estimate D2E/DX2                !
 ! R3    R(1,4)                  1.1094         estimate D2E/DX2                !
 ! R4    R(1,5)                  1.1094         estimate D2E/DX2                !
 ! R5    R(2,6)                  2.7203         estimate D2E/DX2                !
 ! A1    A(2,1,3)              109.4638         estimate D2E/DX2                !
 ! A2    A(2,1,4)              109.4608         estimate D2E/DX2                !
 ! A3    A(2,1,5)              109.4566         estimate D2E/DX2                !
 ! A4    A(3,1,4)              109.4835         estimate D2E/DX2                !
 ! A5    A(3,1,5)              109.4819         estimate D2E/DX2                !
 ! A6    A(4,1,5)              109.4808         estimate D2E/DX2                !
 ! A7    L(1,2,6,5,-1)         179.9888         estimate D2E/DX2                !
 ! A8    L(1,2,6,5,-2)         180.0131         estimate D2E/DX2                !
 ! D1    D(2,1,4,3)            119.9921         estimate D2E/DX2                !
 ! D2    D(2,1,5,3)           -119.9885         estimate D2E/DX2                !
 ! D3    D(2,1,5,4)            119.9841         estimate D2E/DX2                !
 ! D4    D(3,1,5,4)           -120.0274         estimate D2E/DX2                !
 --------------------------------------------------------------------------------
 Trust Radius=3.00D-01 FncErr=1.00D-07 GrdErr=1.00D-06 EigMax=2.50D+02 EigMin=1.00D-04
 Number of steps in this run=     27 maximum allowed number of steps=    100.
 GradGradGradGradGradGradGradGradGradGradGradGradGradGradGradGradGradGrad

                          Input orientation:                          
 ---------------------------------------------------------------------
 Center     Atomic      Atomic             Coordinates (Angstroms)
 Number     Number       Type             X           Y           Z
 ---------------------------------------------------------------------
      1          6           0       -9.221930    2.733160    0.000000
      2         80           0       -7.137900    2.933960    0.000000
      3          1           0       -9.508220    1.850220    0.607560
      4          1           0       -9.580200    2.597790   -1.041170
      5          1           0       -9.681060    3.645280    0.433610
      6         53           0       -4.430190    3.195440    0.000000
 ---------------------------------------------------------------------
                    Distance matrix (angstroms):
                    1          2          3          4          5
     1  C    0.000000
     2  Hg   2.093681   0.000000
     3  H    1.109358   2.676199   0.000000
     4  H    1.109377   2.676168   1.811726   0.000000
     5  H    1.109406   2.676127   1.811732   1.811735   0.000000
     6  I    4.813987   2.720306   5.288207   5.288083   5.287912
                    6
     6  I    0.000000
 This structure is nearly, but not quite of a higher symmetry.
 Consider Symm=Loose if the higher symmetry is desired.
 Stoichiometry    CH3HgI
 Framework group  C1[X(CH3HgI)]
 Deg. of freedom    12
 Full point group                 C1      NOp   1
 Largest Abelian subgroup         C1      NOp   1
 Largest concise Abelian subgroup C1      NOp   1
                         Standard orientation:                         
 ---------------------------------------------------------------------
 Center     Atomic      Atomic             Coordinates (Angstroms)
 Number     Number       Type             X           Y           Z
 ---------------------------------------------------------------------
      1          6           0        0.988997    1.278001   -2.490099
      2         80           0        0.291537    0.376730   -0.733750
      3          1           0        2.029744    1.630144   -2.336756
      4          1           0        0.340249    2.140908   -2.745510
      5          1           0        0.966285    0.540150   -3.318255
      6         53           0       -0.614967   -0.794672    1.547945
 ---------------------------------------------------------------------
 Rotational constants (GHZ):         152.7721595           0.6947230           0.6947230
 Standard basis: def2SVP (5D, 7F)
 There are    95 symmetry adapted cartesian basis functions of A   symmetry.
 There are    87 symmetry adapted basis functions of A   symmetry.
    87 basis functions,   178 primitive gaussians,    95 cartesian basis functions
    27 alpha electrons       27 beta electrons
       nuclear repulsion energy       172.9147561296 Hartrees.
 NAtoms=    6 NActive=    6 NUniq=    6 SFac= 1.00D+00 NAtFMM=   60 NAOKFM=F Big=F
 Integral buffers will be    131072 words long.
 Raffenetti 2 integral format.
 Two-electron integral symmetry is turned on.
 R6APFD:  NTU= -4 IXU= 1 FactS= 1.050
 Nuclear repulsion after empirical dispersion term =      172.8939714788 Hartrees.
 One-electron integrals computed using PRISM.
 PrsmSu:  requested number of processors reduced to:  13 ShMem   1 Linda.
   1 Symmetry operations used in ECPInt.
 ECPInt:  NShTT=     703 NPrTT=    2482 LenC2=     696 LenP2D=    2085.
 LDataN:  DoStor=T MaxTD1= 8 Len=  415
 NBasis=    87 RedAO= T EigKep=  9.13D-03  NBF=    87
 NBsUse=    87 1.00D-06 EigRej= -1.00D+00 NBFU=    87
 Defaulting to unpruned grid for atomic number  80.
 Defaulting to unpruned grid for atomic number  53.
 ExpMin= 5.64D-02 ExpMax= 1.24D+03 ExpMxC= 1.86D+02 IAcc=3 IRadAn=         5 AccDes= 0.00D+00
 Harris functional with IExCor= 3731 and IRadAn=       5 diagonalized for initial guess.
 HarFok:  IExCor= 3731 AccDes= 0.00D+00 IRadAn=         5 IDoV= 1 UseB2=F ITyADJ=14
 ICtDFT=  3500011 ScaDFX=  1.000000  1.000000  1.000000  1.000000
 Defaulting to unpruned grid for atomic number  80.
 FoFCou: FMM=F IPFlag=           0 FMFlag=      100000 FMFlg1=           0
         NFxFlg=           0 DoJE=T BraDBF=F KetDBF=T FulRan=T
         wScrn=  0.000000 ICntrl=       500 IOpCl=  0 I1Cent=   200000004 NGrid=           0
         NMat0=    1 NMatS0=      1 NMatT0=    0 NMatD0=    1 NMtDS0=    0 NMtDT0=    0
 Petite list used in FoFCou.
 Keep R1 ints in memory in canonical form, NReq=29340404.
 Requested convergence on RMS density matrix=1.00D-08 within 128 cycles.
 Requested convergence on MAX density matrix=1.00D-06.
 Requested convergence on             energy=1.00D-06.
 No special actions if energy rises.
 Integral accuracy reduced to 1.0D-05 until final iterations.
 Defaulting to unpruned grid for atomic number  80.
 Defaulting to unpruned grid for atomic number  80.
 Defaulting to unpruned grid for atomic number  80.
 Defaulting to unpruned grid for atomic number  80.
 Defaulting to unpruned grid for atomic number  80.
 Defaulting to unpruned grid for atomic number  80.
 Defaulting to unpruned grid for atomic number  80.
 Defaulting to unpruned grid for atomic number  80.
 Defaulting to unpruned grid for atomic number  80.
 Defaulting to unpruned grid for atomic number  80.
 Defaulting to unpruned grid for atomic number  80.
 Defaulting to unpruned grid for atomic number  80.
 Defaulting to unpruned grid for atomic number  80.
 Defaulting to unpruned grid for atomic number  80.
 Defaulting to unpruned grid for atomic number  80.
 Defaulting to unpruned grid for atomic number  80.
 Defaulting to unpruned grid for atomic number  80.
 Defaulting to unpruned grid for atomic number  80.
 Defaulting to unpruned grid for atomic number  80.
 Defaulting to unpruned grid for atomic number  80.
 Defaulting to unpruned grid for atomic number  80.
 Defaulting to unpruned grid for atomic number  80.
 Defaulting to unpruned grid for atomic number  80.
 Defaulting to unpruned grid for atomic number  80.
 Initial convergence to 1.0D-05 achieved.  Increase integral accuracy.
 SCF Done:  E(RAPFD) =  -491.190855497     A.U. after   14 cycles
            NFock= 14  Conv=0.47D-08     -V/T= 3.4102

 **********************************************************************

            Population analysis using the SCF density.

 **********************************************************************

 Orbital symmetries:
       Occupied  (A) (A) (A) (A) (A) (A) (A) (A) (A) (A) (A) (A)
                 (A) (A) (A) (A) (A) (A) (A) (A) (A) (A) (A) (A)
                 (A) (A) (A)
       Virtual   (A) (A) (A) (A) (A) (A) (A) (A) (A) (A) (A) (A)
                 (A) (A) (A) (A) (A) (A) (A) (A) (A) (A) (A) (A)
                 (A) (A) (A) (A) (A) (A) (A) (A) (A) (A) (A) (A)
                 (A) (A) (A) (A) (A) (A) (A) (A) (A) (A) (A) (A)
                 (A) (A) (A) (A) (A) (A) (A) (A) (A) (A) (A) (A)
 The electronic state is 1-A.
 Alpha  occ. eigenvalues --  -10.24273  -6.84941  -4.86772  -4.85788  -4.85788
 Alpha  occ. eigenvalues --   -4.53472  -2.66855  -2.66177  -2.66177  -1.90351
 Alpha  occ. eigenvalues --   -1.90039  -1.90039  -1.89200  -1.89200  -0.71735
 Alpha  occ. eigenvalues --   -0.67476  -0.51480  -0.50987  -0.50987  -0.49108
 Alpha  occ. eigenvalues --   -0.49108  -0.41738  -0.41737  -0.36776  -0.29193
 Alpha  occ. eigenvalues --   -0.25649  -0.25649
 Alpha virt. eigenvalues --   -0.04917  -0.01239  -0.01239   0.06295   0.12584
 Alpha virt. eigenvalues --    0.12585   0.14708   0.19493   0.35425   0.35859
 Alpha virt. eigenvalues --    0.35859   0.37746   0.41702   0.41703   0.42972
 Alpha virt. eigenvalues --    0.42972   0.48132   0.48154   0.48155   0.51174
 Alpha virt. eigenvalues --    0.51178   0.60637   0.65498   0.65499   0.67472
 Alpha virt. eigenvalues --    0.67942   0.67943   0.76255   0.81099   0.81100
 Alpha virt. eigenvalues --    0.98970   1.08555   1.22822   1.22824   1.49770
 Alpha virt. eigenvalues --    1.52429   1.52894   1.52895   1.53789   1.53789
 Alpha virt. eigenvalues --    1.54004   1.54014   1.74710   1.74712   1.89400
 Alpha virt. eigenvalues --    1.94728   1.94732   2.16390   2.28780   2.39093
 Alpha virt. eigenvalues --    2.39093   2.68157   2.87316   2.87319  18.62477
 Alpha virt. eigenvalues --   18.62477  18.86729  33.25931  56.07373 121.52363
          Condensed to atoms (all electrons):
               1          2          3          4          5          6
     1  C    5.109686   0.233425   0.370391   0.370387   0.370382  -0.014263
     2  Hg   0.233425  19.138827  -0.022014  -0.022016  -0.022018   0.268435
     3  H    0.370391  -0.022014   0.574056  -0.013214  -0.013215   0.000344
     4  H    0.370387  -0.022016  -0.013214   0.574059  -0.013216   0.000344
     5  H    0.370382  -0.022018  -0.013215  -0.013216   0.574062   0.000344
     6  I   -0.014263   0.268435   0.000344   0.000344   0.000344  25.041120
 Mulliken charges:
               1
     1  C   -0.440008
     2  Hg   0.425362
     3  H    0.103652
     4  H    0.103656
     5  H    0.103662
     6  I   -0.296323
 Sum of Mulliken charges =  -0.00000
 Mulliken charges with hydrogens summed into heavy atoms:
               1
     1  C   -0.129038
     2  Hg   0.425362
     6  I   -0.296323
 Electronic spatial extent (au):  <R**2>=            807.7486
 Charge=             -0.0000 electrons
 Dipole moment (field-independent basis, Debye):
    X=              1.2285    Y=              1.5874    Z=             -3.0922  Tot=              3.6866
 Quadrupole moment (field-independent basis, Debye-Ang):
   XX=            -57.8700   YY=            -57.8772   ZZ=            -57.9267
   XY=             -0.0137   XZ=              0.0267   YZ=              0.0345
 Traceless Quadrupole moment (field-independent basis, Debye-Ang):
   XX=              0.0213   YY=              0.0141   ZZ=             -0.0354
   XY=             -0.0137   XZ=              0.0267   YZ=              0.0345
 Octapole moment (field-independent basis, Debye-Ang**2):
  XXX=             10.8967  YYY=             13.1512  ZZZ=            -22.4073  XYY=              2.7154
  XXY=              4.7748  XXZ=             -8.0242  XZZ=              1.7162  YZZ=              1.8816
  YYZ=             -8.1356  XYZ=              1.0493
 Hexadecapole moment (field-independent basis, Debye-Ang**3):
 XXXX=           -196.5884 YYYY=           -278.6860 ZZZZ=           -823.6221 XXXY=            -74.2143
 XXXZ=            149.0361 YYYX=            -78.2945 YYYZ=            191.1963 ZZZX=            145.5724
 ZZZY=            191.0761 XXYY=            -78.4481 XXZZ=           -172.1090 YYZZ=           -181.6594
 XXYZ=             62.8053 YYXZ=             49.8213 ZZXY=            -24.2926
 N-N= 1.728939714788D+02 E-N=-1.389278611028D+03  KE= 2.037952659707D+02
 R6APFD:  NTU= -4 IXU= 1 FactS= 1.050
 PrsmSu:  requested number of processors reduced to:  11 ShMem   1 Linda.
   1 Symmetry operations used in ECPInt.
 ECPInt:  NShTT=     703 NPrTT=    2482 LenC2=     696 LenP2D=    2085.
 LDataN:  DoStor=T MaxTD1= 9 Len=  602
 Calling FoFJK, ICntrl=      2127 FMM=F ISym2X=0 I1Cent= 0 IOpClX= 0 NMat=1 NMatS=1 NMatT=0.
 Defaulting to unpruned grid for atomic number  80.
 Defaulting to unpruned grid for atomic number  80.
 Defaulting to unpruned grid for atomic number  80.
 Defaulting to unpruned grid for atomic number  80.
 Defaulting to unpruned grid for atomic number  80.
 Defaulting to unpruned grid for atomic number  80.
 Defaulting to unpruned grid for atomic number  80.
 Defaulting to unpruned grid for atomic number  80.
 Defaulting to unpruned grid for atomic number  80.
 Defaulting to unpruned grid for atomic number  80.
 Defaulting to unpruned grid for atomic number  80.
 Defaulting to unpruned grid for atomic number  80.
 Defaulting to unpruned grid for atomic number  80.
 Defaulting to unpruned grid for atomic number  80.
 Defaulting to unpruned grid for atomic number  80.
 Defaulting to unpruned grid for atomic number  80.
 Defaulting to unpruned grid for atomic number  80.
 Defaulting to unpruned grid for atomic number  80.
 Defaulting to unpruned grid for atomic number  80.
 Defaulting to unpruned grid for atomic number  80.
 Defaulting to unpruned grid for atomic number  80.
 Defaulting to unpruned grid for atomic number  80.
 Defaulting to unpruned grid for atomic number  80.
 Defaulting to unpruned grid for atomic number  80.
 ***** Axes restored to original set *****
 -------------------------------------------------------------------
 Center     Atomic                   Forces (Hartrees/Bohr)
 Number     Number              X              Y              Z
 -------------------------------------------------------------------
      1        6          -0.009941701   -0.000934652   -0.000002570
      2       80           0.022518795    0.002181813    0.000004385
      3        1           0.003158061    0.005673460   -0.003814731
      4        1           0.003613576    0.000980162    0.006544961
      5        1           0.004253288   -0.005618903   -0.002732858
      6       53          -0.023602019   -0.002281879    0.000000814
 -------------------------------------------------------------------
 Cartesian Forces:  Max     0.023602019 RMS     0.008642690

 GradGradGradGradGradGradGradGradGradGradGradGradGradGradGradGradGradGrad
 Berny optimization.
 FormGI is forming the generalized inverse of G from B-inverse, IUseBI=4.
 Internal  Forces:  Max     0.023712070 RMS     0.006569505
 Search for a local minimum.
 Step number   1 out of a maximum of   27
 All quantities printed in internal units (Hartrees-Bohrs-Radians)
 Mixed Optimization -- RFO/linear search
 Second derivative matrix not updated -- first step.
 The second derivative matrix:
                          R1        R2        R3        R4        R5
           R1           0.15480
           R2           0.00000   0.32668
           R3           0.00000   0.00000   0.32666
           R4           0.00000   0.00000   0.00000   0.32663
           R5           0.00000   0.00000   0.00000   0.00000   0.09536
           A1           0.00000   0.00000   0.00000   0.00000   0.00000
           A2           0.00000   0.00000   0.00000   0.00000   0.00000
           A3           0.00000   0.00000   0.00000   0.00000   0.00000
           A4           0.00000   0.00000   0.00000   0.00000   0.00000
           A5           0.00000   0.00000   0.00000   0.00000   0.00000
           A6           0.00000   0.00000   0.00000   0.00000   0.00000
           A7           0.00000   0.00000   0.00000   0.00000   0.00000
           A8           0.00000   0.00000   0.00000   0.00000   0.00000
           D1           0.00000   0.00000   0.00000   0.00000   0.00000
           D2           0.00000   0.00000   0.00000   0.00000   0.00000
           D3           0.00000   0.00000   0.00000   0.00000   0.00000
           D4           0.00000   0.00000   0.00000   0.00000   0.00000
                          A1        A2        A3        A4        A5
           A1           0.16000
           A2           0.00000   0.16000
           A3           0.00000   0.00000   0.16000
           A4           0.00000   0.00000   0.00000   0.16000
           A5           0.00000   0.00000   0.00000   0.00000   0.16000
           A6           0.00000   0.00000   0.00000   0.00000   0.00000
           A7           0.00000   0.00000   0.00000   0.00000   0.00000
           A8           0.00000   0.00000   0.00000   0.00000   0.00000
           D1           0.00000   0.00000   0.00000   0.00000   0.00000
           D2           0.00000   0.00000   0.00000   0.00000   0.00000
           D3           0.00000   0.00000   0.00000   0.00000   0.00000
           D4           0.00000   0.00000   0.00000   0.00000   0.00000
                          A6        A7        A8        D1        D2
           A6           0.16000
           A7           0.00000   0.00230
           A8           0.00000   0.00000   0.00230
           D1           0.00000   0.00000   0.00000   0.00230
           D2           0.00000   0.00000   0.00000   0.00000   0.00230
           D3           0.00000   0.00000   0.00000   0.00000   0.00000
           D4           0.00000   0.00000   0.00000   0.00000   0.00000
                          D3        D4
           D3           0.00230
           D4           0.00000   0.00230
 ITU=  0
     Eigenvalues ---    0.00230   0.00230   0.05082   0.05714   0.08642
     Eigenvalues ---    0.09536   0.15480   0.16000   0.16000   0.32663
     Eigenvalues ---    0.32666   0.32668
 RFO step:  Lambda=-6.10737012D-03 EMin= 2.30000000D-03
 Linear search not attempted -- first point.
 Iteration  1 RMS(Cart)=  0.04937661 RMS(Int)=  0.00818248
 Iteration  2 RMS(Cart)=  0.00744738 RMS(Int)=  0.00004051
 Iteration  3 RMS(Cart)=  0.00000011 RMS(Int)=  0.00004051
 Variable       Old X    -DE/DX   Delta X   Delta X   Delta X     New X
                                 (Linear)    (Quad)   (Total)
    R1        3.95648  -0.00109   0.00000  -0.00676  -0.00676   3.94972
    R2        2.09638  -0.00742   0.00000  -0.02230  -0.02230   2.07409
    R3        2.09642  -0.00743   0.00000  -0.02233  -0.02233   2.07409
    R4        2.09647  -0.00745   0.00000  -0.02238  -0.02238   2.07409
    R5        5.14063  -0.02371   0.00000  -0.23369  -0.23369   4.90694
    A1        1.91050  -0.00030   0.00000  -0.00722  -0.00719   1.90331
    A2        1.91045  -0.00047   0.00000  -0.00747  -0.00745   1.90301
    A3        1.91038  -0.00091   0.00000  -0.00775  -0.00775   1.90263
    A4        1.91085   0.00012   0.00000   0.00710   0.00699   1.91784
    A5        1.91082   0.00073   0.00000   0.00765   0.00759   1.91841
    A6        1.91080   0.00083   0.00000   0.00768   0.00762   1.91842
    A7        3.14140   0.00002   0.00000   0.00223   0.00223   3.14362
    A8        3.14182  -0.00000   0.00000  -0.00000  -0.00000   3.14182
    D1        2.09426  -0.00058   0.00000  -0.00907  -0.00911   2.08515
    D2       -2.09419   0.00048   0.00000   0.00891   0.00893  -2.08526
    D3        2.09412  -0.00062   0.00000  -0.00919  -0.00923   2.08489
    D4       -2.09487  -0.00110   0.00000  -0.01809  -0.01816  -2.11303
         Item               Value     Threshold  Converged?
 Maximum Force            0.023712     0.000450     NO 
 RMS     Force            0.006570     0.000300     NO 
 Maximum Displacement     0.209114     0.001800     NO 
 RMS     Displacement     0.056698     0.001200     NO 
 Predicted change in Energy=-3.228280D-03
 GradGradGradGradGradGradGradGradGradGradGradGradGradGradGradGradGradGrad

                          Input orientation:                          
 ---------------------------------------------------------------------
 Center     Atomic      Atomic             Coordinates (Angstroms)
 Number     Number       Type             X           Y           Z
 ---------------------------------------------------------------------
      1          6           0       -9.206041    2.734751    0.000067
      2         80           0       -7.125750    2.937047    0.000864
      3          1           0       -9.481112    1.859433    0.602388
      4          1           0       -9.552266    2.600890   -1.032818
      5          1           0       -9.653483    3.640047    0.430037
      6         53           0       -4.540849    3.183682   -0.000537
 ---------------------------------------------------------------------
                    Distance matrix (angstroms):
                    1          2          3          4          5
     1  C    0.000000
     2  Hg   2.090104   0.000000
     3  H    1.097560   2.659100   0.000000
     4  H    1.097562   2.658850   1.796864   0.000000
     5  H    1.097561   2.658540   1.797221   1.797231   0.000000
     6  I    4.686742   2.596641   5.150083   5.149714   5.150990
                    6
     6  I    0.000000
 Stoichiometry    CH3HgI
 Framework group  C1[X(CH3HgI)]
 Deg. of freedom    12
 Full point group                 C1      NOp   1
 Largest Abelian subgroup         C1      NOp   1
 Largest concise Abelian subgroup C1      NOp   1
                         Standard orientation:                         
 ---------------------------------------------------------------------
 Center     Atomic      Atomic             Coordinates (Angstroms)
 Number     Number       Type             X           Y           Z
 ---------------------------------------------------------------------
      1          6           0        2.919237    0.002798   -0.000071
      2         80           0        0.829136   -0.000616    0.000019
      3          1           0        3.276721    0.507761    0.906491
      4          1           0        3.276277    0.536595   -0.890141
      5          1           0        3.278487   -1.034169   -0.016793
      6         53           0       -1.767505    0.000421   -0.000012
 ---------------------------------------------------------------------
 Rotational constants (GHZ):         155.2587758           0.7528986           0.7528974
 Standard basis: def2SVP (5D, 7F)
 There are    95 symmetry adapted cartesian basis functions of A   symmetry.
 There are    87 symmetry adapted basis functions of A   symmetry.
    87 basis functions,   178 primitive gaussians,    95 cartesian basis functions
    27 alpha electrons       27 beta electrons
       nuclear repulsion energy       178.4243087838 Hartrees.
 NAtoms=    6 NActive=    6 NUniq=    6 SFac= 1.00D+00 NAtFMM=   60 NAOKFM=F Big=F
 Integral buffers will be    131072 words long.
 Raffenetti 2 integral format.
 Two-electron integral symmetry is turned on.
 R6APFD:  NTU= -4 IXU= 1 FactS= 1.050
 Nuclear repulsion after empirical dispersion term =      178.4009201636 Hartrees.
 One-electron integrals computed using PRISM.
 PrsmSu:  requested number of processors reduced to:  13 ShMem   1 Linda.
   1 Symmetry operations used in ECPInt.
 ECPInt:  NShTT=     703 NPrTT=    2482 LenC2=     701 LenP2D=    2099.
 LDataN:  DoStor=T MaxTD1= 8 Len=  415
 NBasis=    87 RedAO= T EigKep=  8.80D-03  NBF=    87
 NBsUse=    87 1.00D-06 EigRej= -1.00D+00 NBFU=    87
 Defaulting to unpruned grid for atomic number  80.
 Defaulting to unpruned grid for atomic number  53.
 Initial guess from the checkpoint file:  "ch3hgI_gas_apfd_def2svp.chk"
 B after Tr=    -0.000000   -0.000000   -0.000000
         Rot=    0.779203    0.243824    0.568981    0.098252 Ang=  77.62 deg.
 ExpMin= 5.64D-02 ExpMax= 1.24D+03 ExpMxC= 1.86D+02 IAcc=2 IRadAn=         4 AccDes= 0.00D+00
 Harris functional with IExCor= 3731 and IRadAn=       4 diagonalized for initial guess.
 HarFok:  IExCor= 3731 AccDes= 0.00D+00 IRadAn=         4 IDoV= 1 UseB2=F ITyADJ=14
 ICtDFT=  3500011 ScaDFX=  1.000000  1.000000  1.000000  1.000000
 Defaulting to unpruned grid for atomic number  80.
 FoFCou: FMM=F IPFlag=           0 FMFlag=      100000 FMFlg1=           0
         NFxFlg=           0 DoJE=T BraDBF=F KetDBF=T FulRan=T
         wScrn=  0.000000 ICntrl=       500 IOpCl=  0 I1Cent=   200000004 NGrid=           0
         NMat0=    1 NMatS0=      1 NMatT0=    0 NMatD0=    1 NMtDS0=    0 NMtDT0=    0
 Petite list used in FoFCou.
 Keep R1 ints in memory in canonical form, NReq=29340404.
 Requested convergence on RMS density matrix=1.00D-08 within 128 cycles.
 Requested convergence on MAX density matrix=1.00D-06.
 Requested convergence on             energy=1.00D-06.
 No special actions if energy rises.
 Integral accuracy reduced to 1.0D-05 until final iterations.
 Defaulting to unpruned grid for atomic number  80.
 Defaulting to unpruned grid for atomic number  80.
 Defaulting to unpruned grid for atomic number  80.
 Defaulting to unpruned grid for atomic number  80.
 Defaulting to unpruned grid for atomic number  80.
 Defaulting to unpruned grid for atomic number  80.
 Defaulting to unpruned grid for atomic number  80.
 Defaulting to unpruned grid for atomic number  80.
 Defaulting to unpruned grid for atomic number  80.
 Defaulting to unpruned grid for atomic number  80.
 Defaulting to unpruned grid for atomic number  80.
 Defaulting to unpruned grid for atomic number  80.
 Defaulting to unpruned grid for atomic number  80.
 Defaulting to unpruned grid for atomic number  80.
 Defaulting to unpruned grid for atomic number  80.
 Defaulting to unpruned grid for atomic number  80.
 Defaulting to unpruned grid for atomic number  80.
 Defaulting to unpruned grid for atomic number  80.
 Defaulting to unpruned grid for atomic number  80.
 Defaulting to unpruned grid for atomic number  80.
 Defaulting to unpruned grid for atomic number  80.
 Defaulting to unpruned grid for atomic number  80.
 Defaulting to unpruned grid for atomic number  80.
 Defaulting to unpruned grid for atomic number  80.
 Initial convergence to 1.0D-05 achieved.  Increase integral accuracy.
 SCF Done:  E(RAPFD) =  -491.194463178     A.U. after   12 cycles
            NFock= 12  Conv=0.41D-08     -V/T= 3.4091
 R6APFD:  NTU= -4 IXU= 1 FactS= 1.050
 PrsmSu:  requested number of processors reduced to:  11 ShMem   1 Linda.
   1 Symmetry operations used in ECPInt.
 ECPInt:  NShTT=     703 NPrTT=    2482 LenC2=     701 LenP2D=    2099.
 LDataN:  DoStor=T MaxTD1= 9 Len=  602
 Calling FoFJK, ICntrl=      2127 FMM=F ISym2X=0 I1Cent= 0 IOpClX= 0 NMat=1 NMatS=1 NMatT=0.
 Defaulting to unpruned grid for atomic number  80.
 Defaulting to unpruned grid for atomic number  80.
 Defaulting to unpruned grid for atomic number  80.
 Defaulting to unpruned grid for atomic number  80.
 Defaulting to unpruned grid for atomic number  80.
 Defaulting to unpruned grid for atomic number  80.
 Defaulting to unpruned grid for atomic number  80.
 Defaulting to unpruned grid for atomic number  80.
 Defaulting to unpruned grid for atomic number  80.
 Defaulting to unpruned grid for atomic number  80.
 Defaulting to unpruned grid for atomic number  80.
 Defaulting to unpruned grid for atomic number  80.
 Defaulting to unpruned grid for atomic number  80.
 Defaulting to unpruned grid for atomic number  80.
 Defaulting to unpruned grid for atomic number  80.
 Defaulting to unpruned grid for atomic number  80.
 Defaulting to unpruned grid for atomic number  80.
 Defaulting to unpruned grid for atomic number  80.
 Defaulting to unpruned grid for atomic number  80.
 Defaulting to unpruned grid for atomic number  80.
 Defaulting to unpruned grid for atomic number  80.
 Defaulting to unpruned grid for atomic number  80.
 Defaulting to unpruned grid for atomic number  80.
 Defaulting to unpruned grid for atomic number  80.
 ***** Axes restored to original set *****
 -------------------------------------------------------------------
 Center     Atomic                   Forces (Hartrees/Bohr)
 Number     Number              X              Y              Z
 -------------------------------------------------------------------
      1        6          -0.001450385   -0.000093828    0.000013102
      2       80           0.003836037    0.000260595   -0.000044778
      3        1           0.000157970   -0.000114121    0.000129648
      4        1           0.000131489    0.000027355   -0.000178482
      5        1           0.000062692    0.000145630    0.000062190
      6       53          -0.002737802   -0.000225630    0.000018321
 -------------------------------------------------------------------
 Cartesian Forces:  Max     0.003836037 RMS     0.001168527

 GradGradGradGradGradGradGradGradGradGradGradGradGradGradGradGradGradGrad
 Berny optimization.
 Using GEDIIS/GDIIS optimizer.
 FormGI is forming the generalized inverse of G from B-inverse, IUseBI=4.
 Internal  Forces:  Max     0.002746865 RMS     0.000723359
 Search for a local minimum.
 Step number   2 out of a maximum of   27
 All quantities printed in internal units (Hartrees-Bohrs-Radians)
 Mixed Optimization -- En-DIIS/RFO-DIIS
 Update second derivatives using D2CorX and points    1    2
 DE= -3.61D-03 DEPred=-3.23D-03 R= 1.12D+00
 TightC=F SS=  1.41D+00  RLast= 2.39D-01 DXNew= 5.0454D-01 7.1667D-01
 Trust test= 1.12D+00 RLast= 2.39D-01 DXMaxT set to 5.05D-01
 The second derivative matrix:
                          R1        R2        R3        R4        R5
           R1           0.15548
           R2           0.00169   0.32786
           R3           0.00169   0.00118   0.32784
           R4           0.00169   0.00118   0.00118   0.32781
           R5           0.00432   0.00070   0.00070   0.00069   0.08941
           A1          -0.00012  -0.00113  -0.00113  -0.00114  -0.00355
           A2          -0.00006  -0.00097  -0.00097  -0.00097  -0.00311
           A3           0.00012  -0.00038  -0.00038  -0.00038  -0.00149
           A4           0.00018   0.00133   0.00133   0.00133   0.00409
           A5          -0.00005   0.00061   0.00061   0.00062   0.00213
           A6          -0.00008   0.00050   0.00050   0.00050   0.00181
           A7          -0.00008  -0.00029  -0.00029  -0.00029  -0.00079
           A8          -0.00000  -0.00000  -0.00000  -0.00000  -0.00000
           D1           0.00019   0.00065   0.00065   0.00065   0.00179
           D2          -0.00016  -0.00053  -0.00053  -0.00054  -0.00148
           D3           0.00021   0.00072   0.00072   0.00072   0.00200
           D4           0.00037   0.00126   0.00126   0.00126   0.00347
                          A1        A2        A3        A4        A5
           A1           0.15978
           A2          -0.00022   0.15978
           A3          -0.00021  -0.00019   0.15987
           A4           0.00022   0.00023   0.00023   0.15978
           A5           0.00021   0.00020   0.00016  -0.00023   0.15983
           A6           0.00021   0.00020   0.00014  -0.00023  -0.00016
           A7          -0.00001  -0.00001  -0.00003   0.00000   0.00002
           A8          -0.00000  -0.00000  -0.00000   0.00000   0.00000
           D1           0.00002   0.00003   0.00007  -0.00000  -0.00006
           D2          -0.00001  -0.00002  -0.00006   0.00000   0.00005
           D3           0.00002   0.00003   0.00008  -0.00000  -0.00006
           D4           0.00003   0.00006   0.00014  -0.00000  -0.00011
                          A6        A7        A8        D1        D2
           A6           0.15985
           A7           0.00003   0.00231
           A8           0.00000   0.00000   0.00230
           D1          -0.00006  -0.00002  -0.00000   0.00234
           D2           0.00005   0.00002   0.00000  -0.00004   0.00233
           D3          -0.00007  -0.00002  -0.00000   0.00005  -0.00004
           D4          -0.00012  -0.00004  -0.00000   0.00008  -0.00007
                          D3        D4
           D3           0.00235
           D4           0.00009   0.00246
 ITU=  1  0
 Use linear search instead of GDIIS.
     Eigenvalues ---    0.00230   0.00230   0.05056   0.05662   0.08722
     Eigenvalues ---    0.08914   0.15570   0.16000   0.16003   0.32664
     Eigenvalues ---    0.32667   0.33026
 RFO step:  Lambda=-3.89997021D-05 EMin= 2.29999999D-03
 Quartic linear search produced a step of  0.08920.
 Iteration  1 RMS(Cart)=  0.05257617 RMS(Int)=  0.00194406
 Iteration  2 RMS(Cart)=  0.00235066 RMS(Int)=  0.00000406
 Iteration  3 RMS(Cart)=  0.00000014 RMS(Int)=  0.00000406
 Variable       Old X    -DE/DX   Delta X   Delta X   Delta X     New X
                                 (Linear)    (Quad)   (Total)
    R1        3.94972   0.00110  -0.00060   0.00841   0.00780   3.95753
    R2        2.07409   0.00012  -0.00199   0.00247   0.00048   2.07456
    R3        2.07409   0.00012  -0.00199   0.00247   0.00048   2.07457
    R4        2.07409   0.00012  -0.00200   0.00246   0.00047   2.07455
    R5        4.90694  -0.00275  -0.02085  -0.00444  -0.02529   4.88165
    A1        1.90331  -0.00006  -0.00064  -0.00039  -0.00103   1.90229
    A2        1.90301  -0.00008  -0.00066  -0.00029  -0.00095   1.90205
    A3        1.90263  -0.00005  -0.00069   0.00025  -0.00044   1.90218
    A4        1.91784   0.00006   0.00062   0.00037   0.00098   1.91882
    A5        1.91841   0.00006   0.00068   0.00004   0.00071   1.91911
    A6        1.91842   0.00007   0.00068   0.00002   0.00069   1.91911
    A7        3.14362  -0.00019   0.00020  -0.09334  -0.09314   3.05048
    A8        3.14182  -0.00000  -0.00000  -0.00053  -0.00053   3.14129
    D1        2.08515  -0.00009  -0.00081  -0.00043  -0.00124   2.08391
    D2       -2.08526   0.00007   0.00080   0.00030   0.00110  -2.08416
    D3        2.08489  -0.00008  -0.00082  -0.00019  -0.00102   2.08387
    D4       -2.11303  -0.00015  -0.00162  -0.00050  -0.00212  -2.11515
         Item               Value     Threshold  Converged?
 Maximum Force            0.002747     0.000450     NO 
 RMS     Force            0.000723     0.000300     NO 
 Maximum Displacement     0.144678     0.001800     NO 
 RMS     Displacement     0.052630     0.001200     NO 
 Predicted change in Energy=-5.602551D-05
 GradGradGradGradGradGradGradGradGradGradGradGradGradGradGradGradGradGrad

                          Input orientation:                          
 ---------------------------------------------------------------------
 Center     Atomic      Atomic             Coordinates (Angstroms)
 Number     Number       Type             X           Y           Z
 ---------------------------------------------------------------------
      1          6           0       -9.204355    2.732448   -0.001071
      2         80           0       -7.114307    2.860486   -0.034576
      3          1           0       -9.499636    1.867873    0.607626
      4          1           0       -9.571065    2.609726   -1.028525
      5          1           0       -9.611722    3.654090    0.434600
      6         53           0       -4.558414    3.231228    0.021946
 ---------------------------------------------------------------------
                    Distance matrix (angstroms):
                    1          2          3          4          5
     1  C    0.000000
     2  Hg   2.094234   0.000000
     3  H    1.097812   2.662235   0.000000
     4  H    1.097816   2.662043   1.797898   0.000000
     5  H    1.097807   2.662144   1.798074   1.798077   0.000000
     6  I    4.672695   2.583260   5.159208   5.159111   5.087732
                    6
     6  I    0.000000
 Stoichiometry    CH3HgI
 Framework group  C1[X(CH3HgI)]
 Deg. of freedom    12
 Full point group                 C1      NOp   1
 Largest Abelian subgroup         C1      NOp   1
 Largest concise Abelian subgroup C1      NOp   1
                         Standard orientation:                         
 ---------------------------------------------------------------------
 Center     Atomic      Atomic             Coordinates (Angstroms)
 Number     Number       Type             X           Y           Z
 ---------------------------------------------------------------------
      1          6           0        2.912744   -0.125595    0.000006
      2         80           0        0.824116    0.027535    0.000001
      3          1           0        3.306936    0.364697    0.899683
      4          1           0        3.306892    0.367405   -0.898213
      5          1           0        3.193059   -1.187010   -0.001599
      6         53           0       -1.758729   -0.018761   -0.000000
 ---------------------------------------------------------------------
 Rotational constants (GHZ):         137.0419061           0.7599125           0.7594214
 Standard basis: def2SVP (5D, 7F)
 There are    95 symmetry adapted cartesian basis functions of A   symmetry.
 There are    87 symmetry adapted basis functions of A   symmetry.
    87 basis functions,   178 primitive gaussians,    95 cartesian basis functions
    27 alpha electrons       27 beta electrons
       nuclear repulsion energy       178.9485526048 Hartrees.
 NAtoms=    6 NActive=    6 NUniq=    6 SFac= 1.00D+00 NAtFMM=   60 NAOKFM=F Big=F
 Integral buffers will be    131072 words long.
 Raffenetti 2 integral format.
 Two-electron integral symmetry is turned on.
 R6APFD:  NTU= -4 IXU= 1 FactS= 1.050
 Nuclear repulsion after empirical dispersion term =      178.9248683789 Hartrees.
 One-electron integrals computed using PRISM.
 PrsmSu:  requested number of processors reduced to:  13 ShMem   1 Linda.
   1 Symmetry operations used in ECPInt.
 ECPInt:  NShTT=     703 NPrTT=    2482 LenC2=     699 LenP2D=    2099.
 LDataN:  DoStor=T MaxTD1= 8 Len=  415
 NBasis=    87 RedAO= T EigKep=  8.79D-03  NBF=    87
 NBsUse=    87 1.00D-06 EigRej= -1.00D+00 NBFU=    87
 Defaulting to unpruned grid for atomic number  53.
 Defaulting to unpruned grid for atomic number  80.
 Initial guess from the checkpoint file:  "ch3hgI_gas_apfd_def2svp.chk"
 B after Tr=     0.000000    0.000000    0.000000
         Rot=    0.999973    0.007309   -0.000002    0.000377 Ang=   0.84 deg.
 ExpMin= 5.64D-02 ExpMax= 1.24D+03 ExpMxC= 1.86D+02 IAcc=2 IRadAn=         4 AccDes= 0.00D+00
 Harris functional with IExCor= 3731 and IRadAn=       4 diagonalized for initial guess.
 HarFok:  IExCor= 3731 AccDes= 0.00D+00 IRadAn=         4 IDoV= 1 UseB2=F ITyADJ=14
 ICtDFT=  3500011 ScaDFX=  1.000000  1.000000  1.000000  1.000000
 Defaulting to unpruned grid for atomic number  80.
 FoFCou: FMM=F IPFlag=           0 FMFlag=      100000 FMFlg1=           0
         NFxFlg=           0 DoJE=T BraDBF=F KetDBF=T FulRan=T
         wScrn=  0.000000 ICntrl=       500 IOpCl=  0 I1Cent=   200000004 NGrid=           0
         NMat0=    1 NMatS0=      1 NMatT0=    0 NMatD0=    1 NMtDS0=    0 NMtDT0=    0
 Petite list used in FoFCou.
 Keep R1 ints in memory in canonical form, NReq=29340404.
 Requested convergence on RMS density matrix=1.00D-08 within 128 cycles.
 Requested convergence on MAX density matrix=1.00D-06.
 Requested convergence on             energy=1.00D-06.
 No special actions if energy rises.
 Integral accuracy reduced to 1.0D-05 until final iterations.
 Defaulting to unpruned grid for atomic number  80.
 Defaulting to unpruned grid for atomic number  80.
 Defaulting to unpruned grid for atomic number  80.
 Defaulting to unpruned grid for atomic number  80.
 Defaulting to unpruned grid for atomic number  80.
 Defaulting to unpruned grid for atomic number  80.
 Defaulting to unpruned grid for atomic number  80.
 Defaulting to unpruned grid for atomic number  80.
 Defaulting to unpruned grid for atomic number  80.
 Defaulting to unpruned grid for atomic number  80.
 Defaulting to unpruned grid for atomic number  80.
 Defaulting to unpruned grid for atomic number  80.
 Defaulting to unpruned grid for atomic number  80.
 Defaulting to unpruned grid for atomic number  80.
 Defaulting to unpruned grid for atomic number  80.
 Defaulting to unpruned grid for atomic number  80.
 Defaulting to unpruned grid for atomic number  80.
 Defaulting to unpruned grid for atomic number  80.
 Defaulting to unpruned grid for atomic number  80.
 Defaulting to unpruned grid for atomic number  80.
 Defaulting to unpruned grid for atomic number  80.
 Defaulting to unpruned grid for atomic number  80.
 Defaulting to unpruned grid for atomic number  80.
 Defaulting to unpruned grid for atomic number  80.
 Initial convergence to 1.0D-05 achieved.  Increase integral accuracy.
 SCF Done:  E(RAPFD) =  -491.194125260     A.U. after   11 cycles
            NFock= 11  Conv=0.39D-08     -V/T= 3.4090
 R6APFD:  NTU= -4 IXU= 1 FactS= 1.050
 PrsmSu:  requested number of processors reduced to:  11 ShMem   1 Linda.
   1 Symmetry operations used in ECPInt.
 ECPInt:  NShTT=     703 NPrTT=    2482 LenC2=     699 LenP2D=    2099.
 LDataN:  DoStor=T MaxTD1= 9 Len=  602
 Calling FoFJK, ICntrl=      2127 FMM=F ISym2X=0 I1Cent= 0 IOpClX= 0 NMat=1 NMatS=1 NMatT=0.
 Defaulting to unpruned grid for atomic number  80.
 Defaulting to unpruned grid for atomic number  80.
 Defaulting to unpruned grid for atomic number  80.
 Defaulting to unpruned grid for atomic number  80.
 Defaulting to unpruned grid for atomic number  80.
 Defaulting to unpruned grid for atomic number  80.
 Defaulting to unpruned grid for atomic number  80.
 Defaulting to unpruned grid for atomic number  80.
 Defaulting to unpruned grid for atomic number  80.
 Defaulting to unpruned grid for atomic number  80.
 Defaulting to unpruned grid for atomic number  80.
 Defaulting to unpruned grid for atomic number  80.
 Defaulting to unpruned grid for atomic number  80.
 Defaulting to unpruned grid for atomic number  80.
 Defaulting to unpruned grid for atomic number  80.
 Defaulting to unpruned grid for atomic number  80.
 Defaulting to unpruned grid for atomic number  80.
 Defaulting to unpruned grid for atomic number  80.
 Defaulting to unpruned grid for atomic number  80.
 Defaulting to unpruned grid for atomic number  80.
 Defaulting to unpruned grid for atomic number  80.
 Defaulting to unpruned grid for atomic number  80.
 Defaulting to unpruned grid for atomic number  80.
 Defaulting to unpruned grid for atomic number  80.
 ***** Axes restored to original set *****
 -------------------------------------------------------------------
 Center     Atomic                   Forces (Hartrees/Bohr)
 Number     Number              X              Y              Z
 -------------------------------------------------------------------
      1        6          -0.000174855   -0.002696761   -0.001229745
      2       80          -0.000844992    0.003875429    0.001808579
      3        1          -0.000248268    0.000073546   -0.000128319
      4        1          -0.000248014   -0.000055769    0.000162360
      5        1           0.000865411    0.000253542    0.000076609
      6       53           0.000650717   -0.001449987   -0.000689484
 -------------------------------------------------------------------
 Cartesian Forces:  Max     0.003875429 RMS     0.001329456

 GradGradGradGradGradGradGradGradGradGradGradGradGradGradGradGradGradGrad
 Berny optimization.
 Using GEDIIS/GDIIS optimizer.
 FormGI is forming the generalized inverse of G from B-inverse, IUseBI=4.
 Internal  Forces:  Max     0.008203699 RMS     0.002037659
 Search for a local minimum.
 Step number   3 out of a maximum of   27
 All quantities printed in internal units (Hartrees-Bohrs-Radians)
 Mixed Optimization -- RFO/linear search
 Update second derivatives using D2CorX and points    1    3    2
 DE=  3.38D-04 DEPred=-5.60D-05 R=-6.03D+00
 Trust test=-6.03D+00 RLast= 9.69D-02 DXMaxT set to 2.52D-01
 The second derivative matrix:
                          R1        R2        R3        R4        R5
           R1           0.14194
           R2          -0.00050   0.32751
           R3          -0.00050   0.00083   0.32749
           R4          -0.00043   0.00084   0.00084   0.32748
           R5           0.02924   0.00472   0.00474   0.00457   0.04460
           A1           0.00034  -0.00106  -0.00106  -0.00107  -0.00399
           A2           0.00011  -0.00094  -0.00094  -0.00096  -0.00277
           A3           0.00229  -0.00003  -0.00003  -0.00002  -0.00710
           A4          -0.00016   0.00127   0.00127   0.00128   0.00439
           A5          -0.00129   0.00041   0.00041   0.00041   0.00491
           A6          -0.00125   0.00031   0.00031   0.00031   0.00433
           A7          -0.00859  -0.00164  -0.00165  -0.00176   0.02456
           A8           0.00000  -0.00000  -0.00000  -0.00000  -0.00000
           D1          -0.00014   0.00059   0.00059   0.00058   0.00318
           D2          -0.00077  -0.00063  -0.00063  -0.00063  -0.00020
           D3           0.00074   0.00081   0.00081   0.00081   0.00107
           D4           0.00152   0.00144   0.00144   0.00144   0.00127
                          A1        A2        A3        A4        A5
           A1           0.15991
           A2           0.00001   0.16016
           A3          -0.00088  -0.00118   0.16189
           A4           0.00012   0.00005   0.00074   0.15986
           A5           0.00044   0.00051  -0.00037  -0.00040   0.15993
           A6           0.00039   0.00043  -0.00021  -0.00036  -0.00011
           A7           0.00386   0.00582  -0.01292  -0.00294   0.00358
           A8           0.00000   0.00000  -0.00001  -0.00000   0.00000
           D1           0.00031   0.00049  -0.00102  -0.00023   0.00026
           D2           0.00006   0.00007  -0.00018  -0.00006   0.00006
           D3           0.00002   0.00006  -0.00008  -0.00000   0.00001
           D4          -0.00004  -0.00001   0.00010   0.00005  -0.00004
                          A6        A7        A8        D1        D2
           A6           0.15987
           A7           0.00254   0.08264
           A8           0.00000   0.00007   0.00230
           D1           0.00017   0.00664   0.00001   0.00289
           D2           0.00005   0.00094   0.00000   0.00005   0.00232
           D3          -0.00001   0.00080   0.00000   0.00010  -0.00001
           D4          -0.00006  -0.00015  -0.00000   0.00005  -0.00003
                          D3        D4
           D3           0.00234
           D4           0.00004   0.00238
 ITU= -1  1  0
 Use linear search instead of GDIIS.
     Eigenvalues ---    0.00230   0.02378   0.05080   0.05669   0.08073
     Eigenvalues ---    0.09860   0.15001   0.16000   0.16594   0.32664
     Eigenvalues ---    0.32667   0.32942
 RFO step:  Lambda=-2.94467284D-04 EMin= 2.29995443D-03
 Quartic linear search produced a step of -0.88779.
 Iteration  1 RMS(Cart)=  0.07045897 RMS(Int)=  0.00344305
 Iteration  2 RMS(Cart)=  0.00417595 RMS(Int)=  0.00000424
 Iteration  3 RMS(Cart)=  0.00000094 RMS(Int)=  0.00000421
 Variable       Old X    -DE/DX   Delta X   Delta X   Delta X     New X
                                 (Linear)    (Quad)   (Total)
    R1        3.95753  -0.00006  -0.00693   0.02945   0.02252   3.98005
    R2        2.07456  -0.00006  -0.00042   0.00197   0.00154   2.07611
    R3        2.07457  -0.00006  -0.00043   0.00197   0.00155   2.07612
    R4        2.07455  -0.00008  -0.00041   0.00192   0.00150   2.07606
    R5        4.88165   0.00042   0.02245  -0.09683  -0.07438   4.80727
    A1        1.90229   0.00036   0.00091  -0.00364  -0.00273   1.89956
    A2        1.90205   0.00055   0.00085  -0.00328  -0.00243   1.89962
    A3        1.90218  -0.00138   0.00039  -0.00297  -0.00257   1.89961
    A4        1.91882  -0.00026  -0.00087   0.00398   0.00309   1.92191
    A5        1.91911   0.00042  -0.00063   0.00290   0.00226   1.92137
    A6        1.91911   0.00031  -0.00062   0.00284   0.00222   1.92133
    A7        3.05048   0.00820   0.08269   0.04094   0.12363   3.17412
    A8        3.14129   0.00001   0.00047  -0.00150  -0.00103   3.14026
    D1        2.08391   0.00061   0.00110  -0.00407  -0.00297   2.08094
    D2       -2.08416   0.00016  -0.00098   0.00452   0.00355  -2.08061
    D3        2.08387   0.00001   0.00091  -0.00412  -0.00322   2.08065
    D4       -2.11515  -0.00014   0.00188  -0.00864  -0.00676  -2.12192
         Item               Value     Threshold  Converged?
 Maximum Force            0.008204     0.000450     NO 
 RMS     Force            0.002038     0.000300     NO 
 Maximum Displacement     0.195197     0.001800     NO 
 RMS     Displacement     0.070378     0.001200     NO 
 Predicted change in Energy=-1.558604D-04
 GradGradGradGradGradGradGradGradGradGradGradGradGradGradGradGradGradGrad

                          Input orientation:                          
 ---------------------------------------------------------------------
 Center     Atomic      Atomic             Coordinates (Angstroms)
 Number     Number       Type             X           Y           Z
 ---------------------------------------------------------------------
      1          6           0       -9.204154    2.735819    0.000390
      2         80           0       -7.110407    2.963780    0.011746
      3          1           0       -9.468430    1.855811    0.602658
      4          1           0       -9.540508    2.598945   -1.036495
      5          1           0       -9.661553    3.637843    0.429420
      6         53           0       -4.574448    3.163652   -0.007719
 ---------------------------------------------------------------------
                    Distance matrix (angstroms):
                    1          2          3          4          5
     1  C    0.000000
     2  Hg   2.106151   0.000000
     3  H    1.098628   2.671525   0.000000
     4  H    1.098635   2.671573   1.801185   0.000000
     5  H    1.098602   2.671546   1.800818   1.800796   0.000000
     6  I    4.649439   2.543897   5.102359   5.102844   5.127824
                    6
     6  I    0.000000
 Stoichiometry    CH3HgI
 Framework group  C1[X(CH3HgI)]
 Deg. of freedom    12
 Full point group                 C1      NOp   1
 Largest Abelian subgroup         C1      NOp   1
 Largest concise Abelian subgroup C1      NOp   1
                         Standard orientation:                         
 ---------------------------------------------------------------------
 Center     Atomic      Atomic             Coordinates (Angstroms)
 Number     Number       Type             X           Y           Z
 ---------------------------------------------------------------------
      1          6           0        2.913968    0.044752   -0.000054
      2         80           0        0.808526   -0.009899    0.000012
      3          1           0        3.254740    0.587797    0.892112
      4          1           0        3.255489    0.559015   -0.908843
      5          1           0        3.295586   -0.985305    0.016540
      6         53           0       -1.735316    0.006828   -0.000009
 ---------------------------------------------------------------------
 Rotational constants (GHZ):         152.0490724           0.7780085           0.7779437
 Standard basis: def2SVP (5D, 7F)
 There are    95 symmetry adapted cartesian basis functions of A   symmetry.
 There are    87 symmetry adapted basis functions of A   symmetry.
    87 basis functions,   178 primitive gaussians,    95 cartesian basis functions
    27 alpha electrons       27 beta electrons
       nuclear repulsion energy       180.4334955447 Hartrees.
 NAtoms=    6 NActive=    6 NUniq=    6 SFac= 1.00D+00 NAtFMM=   60 NAOKFM=F Big=F
 Integral buffers will be    131072 words long.
 Raffenetti 2 integral format.
 Two-electron integral symmetry is turned on.
 R6APFD:  NTU= -4 IXU= 1 FactS= 1.050
 Nuclear repulsion after empirical dispersion term =      180.4089451535 Hartrees.
 One-electron integrals computed using PRISM.
 PrsmSu:  requested number of processors reduced to:  13 ShMem   1 Linda.
   1 Symmetry operations used in ECPInt.
 ECPInt:  NShTT=     703 NPrTT=    2482 LenC2=     701 LenP2D=    2103.
 LDataN:  DoStor=T MaxTD1= 8 Len=  415
 NBasis=    87 RedAO= T EigKep=  8.70D-03  NBF=    87
 NBsUse=    87 1.00D-06 EigRej= -1.00D+00 NBFU=    87
 Defaulting to unpruned grid for atomic number  80.
 Defaulting to unpruned grid for atomic number  53.
 Lowest energy guess from the checkpoint file:  "ch3hgI_gas_apfd_def2svp.chk"
 B after Tr=     0.000000   -0.000000   -0.000000
         Rot=    0.999872    0.015992    0.000003   -0.000088 Ang=   1.83 deg.
 B after Tr=    -0.000000   -0.000000   -0.000000
         Rot=    1.000000   -0.000000   -0.000000   -0.000000 Ang=   0.00 deg.
 Keep R1 ints in memory in canonical form, NReq=29340404.
 Requested convergence on RMS density matrix=1.00D-08 within 128 cycles.
 Requested convergence on MAX density matrix=1.00D-06.
 Requested convergence on             energy=1.00D-06.
 No special actions if energy rises.
 Integral accuracy reduced to 1.0D-05 until final iterations.
 Defaulting to unpruned grid for atomic number  80.
 Defaulting to unpruned grid for atomic number  80.
 Defaulting to unpruned grid for atomic number  80.
 Defaulting to unpruned grid for atomic number  80.
 Defaulting to unpruned grid for atomic number  80.
 Defaulting to unpruned grid for atomic number  80.
 Defaulting to unpruned grid for atomic number  80.
 Defaulting to unpruned grid for atomic number  80.
 Defaulting to unpruned grid for atomic number  80.
 Defaulting to unpruned grid for atomic number  80.
 Defaulting to unpruned grid for atomic number  80.
 Defaulting to unpruned grid for atomic number  80.
 Defaulting to unpruned grid for atomic number  80.
 Defaulting to unpruned grid for atomic number  80.
 Defaulting to unpruned grid for atomic number  80.
 Defaulting to unpruned grid for atomic number  80.
 Defaulting to unpruned grid for atomic number  80.
 Defaulting to unpruned grid for atomic number  80.
 Defaulting to unpruned grid for atomic number  80.
 Defaulting to unpruned grid for atomic number  80.
 Defaulting to unpruned grid for atomic number  80.
 Defaulting to unpruned grid for atomic number  80.
 Defaulting to unpruned grid for atomic number  80.
 Defaulting to unpruned grid for atomic number  80.
 Initial convergence to 1.0D-05 achieved.  Increase integral accuracy.
 SCF Done:  E(RAPFD) =  -491.194022668     A.U. after   11 cycles
            NFock= 11  Conv=0.41D-08     -V/T= 3.4089
 R6APFD:  NTU= -4 IXU= 1 FactS= 1.050
 PrsmSu:  requested number of processors reduced to:  11 ShMem   1 Linda.
   1 Symmetry operations used in ECPInt.
 ECPInt:  NShTT=     703 NPrTT=    2482 LenC2=     701 LenP2D=    2103.
 LDataN:  DoStor=T MaxTD1= 9 Len=  602
 Calling FoFJK, ICntrl=      2127 FMM=F ISym2X=0 I1Cent= 0 IOpClX= 0 NMat=1 NMatS=1 NMatT=0.
 Defaulting to unpruned grid for atomic number  80.
 Defaulting to unpruned grid for atomic number  80.
 Defaulting to unpruned grid for atomic number  80.
 Defaulting to unpruned grid for atomic number  80.
 Defaulting to unpruned grid for atomic number  80.
 Defaulting to unpruned grid for atomic number  80.
 Defaulting to unpruned grid for atomic number  80.
 Defaulting to unpruned grid for atomic number  80.
 Defaulting to unpruned grid for atomic number  80.
 Defaulting to unpruned grid for atomic number  80.
 Defaulting to unpruned grid for atomic number  80.
 Defaulting to unpruned grid for atomic number  80.
 Defaulting to unpruned grid for atomic number  80.
 Defaulting to unpruned grid for atomic number  80.
 Defaulting to unpruned grid for atomic number  80.
 Defaulting to unpruned grid for atomic number  80.
 Defaulting to unpruned grid for atomic number  80.
 Defaulting to unpruned grid for atomic number  80.
 Defaulting to unpruned grid for atomic number  80.
 Defaulting to unpruned grid for atomic number  80.
 Defaulting to unpruned grid for atomic number  80.
 Defaulting to unpruned grid for atomic number  80.
 Defaulting to unpruned grid for atomic number  80.
 Defaulting to unpruned grid for atomic number  80.
 ***** Axes restored to original set *****
 -------------------------------------------------------------------
 Center     Atomic                   Forces (Hartrees/Bohr)
 Number     Number              X              Y              Z
 -------------------------------------------------------------------
      1        6           0.003337410    0.001360394    0.000448199
      2       80          -0.013804098   -0.002661073   -0.000581364
      3        1           0.000173698    0.000533101   -0.000367931
      4        1           0.000215566    0.000079609    0.000634458
      5        1          -0.000101894   -0.000685776   -0.000304442
      6       53           0.010179318    0.001373744    0.000171081
 -------------------------------------------------------------------
 Cartesian Forces:  Max     0.013804098 RMS     0.004204334

 GradGradGradGradGradGradGradGradGradGradGradGradGradGradGradGradGradGrad
 Berny optimization.
 Using GEDIIS/GDIIS optimizer.
 FormGI is forming the generalized inverse of G from B-inverse, IUseBI=4.
 Internal  Forces:  Max     0.010254177 RMS     0.002764182
 Search for a local minimum.
 Step number   4 out of a maximum of   27
 All quantities printed in internal units (Hartrees-Bohrs-Radians)
 Mixed Optimization -- RFO/linear search
 Iteration  1 RMS(Cart)=  0.06778692 RMS(Int)=  0.00296477
 Iteration  2 RMS(Cart)=  0.00482662 RMS(Int)=  0.00000775
 Iteration  3 RMS(Cart)=  0.00001001 RMS(Int)=  0.00000000
 Iteration  4 RMS(Cart)=  0.00000000 RMS(Int)=  0.00000000
 Update second derivatives using D2CorX and points    1    4    3    2
 DE=  3.38D-04 DEPred=-1.56D-04 R=-2.17D+00
 Trust test=-2.17D+00 RLast= 9.69D-02 DXMaxT set to 1.26D-01
 The second derivative matrix:
                          R1        R2        R3        R4        R5
           R1           0.12571
           R2          -0.01998   0.31112
           R3          -0.02001  -0.01559   0.31104
           R4          -0.01998  -0.01555  -0.01558   0.31109
           R5          -0.00894  -0.00636  -0.00639  -0.00625   0.12754
           A1           0.00144  -0.00045  -0.00045  -0.00047  -0.00485
           A2           0.00083  -0.00072  -0.00072  -0.00074  -0.00422
           A3           0.00000  -0.00092  -0.00092  -0.00089  -0.00297
           A4          -0.00126   0.00071   0.00071   0.00073   0.00530
           A5          -0.00049   0.00068   0.00069   0.00068   0.00333
           A6          -0.00040   0.00071   0.00071   0.00071   0.00318
           A7           0.00015  -0.00049  -0.00049  -0.00069  -0.00136
           A8          -0.00002   0.00001   0.00001   0.00001   0.00014
           D1          -0.00020   0.00005   0.00005   0.00003   0.00097
           D2          -0.00024  -0.00045  -0.00045  -0.00046  -0.00124
           D3           0.00020   0.00048   0.00048   0.00048   0.00148
           D4           0.00043   0.00093   0.00093   0.00094   0.00273
                          A1        A2        A3        A4        A5
           A1           0.15990
           A2           0.00002   0.16018
           A3          -0.00093  -0.00127   0.16205
           A4           0.00014   0.00005   0.00081   0.15983
           A5           0.00046   0.00054  -0.00042  -0.00043   0.15996
           A6           0.00040   0.00046  -0.00024  -0.00039  -0.00009
           A7           0.00419   0.00628  -0.01424  -0.00329   0.00407
           A8           0.00000   0.00000  -0.00000  -0.00000   0.00000
           D1           0.00034   0.00052  -0.00117  -0.00025   0.00032
           D2           0.00007   0.00009  -0.00023  -0.00007   0.00007
           D3           0.00002   0.00005  -0.00008   0.00001   0.00001
           D4          -0.00006  -0.00004   0.00014   0.00008  -0.00006
                          A6        A7        A8        D1        D2
           A6           0.15987
           A7           0.00292   0.09043
           A8           0.00000   0.00003   0.00230
           D1           0.00023   0.00723   0.00000   0.00289
           D2           0.00006   0.00127  -0.00000   0.00009   0.00234
           D3          -0.00000   0.00063   0.00000   0.00007  -0.00001
           D4          -0.00006  -0.00064   0.00000  -0.00002  -0.00005
                          D3        D4
           D3           0.00233
           D4           0.00004   0.00239
 ITU= -1 -1  1  0
 Use linear search instead of GDIIS.
 Energy rises -- skip Quadratic/GDIIS search.
 Quartic linear search produced a step of -0.88779.
 Iteration  1 RMS(Cart)=  0.04536580 RMS(Int)=  0.00144949
 Iteration  2 RMS(Cart)=  0.00201207 RMS(Int)=  0.00000270
 Iteration  3 RMS(Cart)=  0.00000104 RMS(Int)=  0.00000260
 Iteration  4 RMS(Cart)=  0.00000000 RMS(Int)=  0.00000260
 Variable       Old X    -DE/DX   Delta X   Delta X   Delta X     New X
                                 (Linear)    (Quad)   (Total)
    R1        3.95753  -0.00006  -0.00693   0.00000   0.01559   3.97312
    R2        2.07456  -0.00006  -0.00042   0.00000   0.00112   2.07568
    R3        2.07457  -0.00006  -0.00043   0.00000   0.00112   2.07569
    R4        2.07455  -0.00008  -0.00041   0.00000   0.00109   2.07564
    R5        4.88165   0.00042   0.02245   0.00000  -0.05194   4.82972
    A1        1.90229   0.00036   0.00091   0.00000  -0.00182   1.90047
    A2        1.90205   0.00055   0.00085   0.00000  -0.00159   1.90046
    A3        1.90218  -0.00138   0.00039   0.00000  -0.00218   1.90000
    A4        1.91882  -0.00026  -0.00087   0.00000   0.00223   1.92105
    A5        1.91911   0.00042  -0.00063   0.00000   0.00164   1.92075
    A6        1.91911   0.00031  -0.00062   0.00000   0.00161   1.92072
    A7        3.05048   0.00820   0.08269   0.00000   0.20632   3.25680
    A8        3.14129   0.00001   0.00047   0.00000  -0.00057   3.14072
    D1        2.08391   0.00061   0.00110   0.00000  -0.00186   2.08205
    D2       -2.08416   0.00016  -0.00098   0.00000   0.00257  -2.08159
    D3        2.08387   0.00001   0.00091   0.00000  -0.00231   2.08156
    D4       -2.11515  -0.00014   0.00188   0.00000  -0.00488  -2.12003
         Item               Value     Threshold  Converged?
 Maximum Force            0.010254     0.000450     NO 
 RMS     Force            0.002764     0.000300     NO 
 Maximum Displacement     0.127330     0.001800     NO 
 RMS     Displacement     0.046205     0.001200     NO 
 Predicted change in Energy=-8.030842D-04
 GradGradGradGradGradGradGradGradGradGradGradGradGradGradGradGradGradGrad

                          Input orientation:                          
 ---------------------------------------------------------------------
 Center     Atomic      Atomic             Coordinates (Angstroms)
 Number     Number       Type             X           Y           Z
 ---------------------------------------------------------------------
      1          6           0       -9.203351    2.738138    0.001423
      2         80           0       -7.121802    3.031160    0.043023
      3          1           0       -9.449373    1.849615    0.598492
      4          1           0       -9.521181    2.592362   -1.039844
      5          1           0       -9.695233    3.624322    0.424717
      6         53           0       -4.568561    3.120254   -0.027812
 ---------------------------------------------------------------------
                    Distance matrix (angstroms):
                    1          2          3          4          5
     1  C    0.000000
     2  Hg   2.102485   0.000000
     3  H    1.098404   2.668742   0.000000
     4  H    1.098410   2.668739   1.800271   0.000000
     5  H    1.098384   2.668347   1.800064   1.800048   0.000000
     6  I    4.650608   2.555777   5.082235   5.082453   5.171231
                    6
     6  I    0.000000
 Stoichiometry    CH3HgI
 Framework group  C1[X(CH3HgI)]
 Deg. of freedom    12
 Full point group                 C1      NOp   1
 Largest Abelian subgroup         C1      NOp   1
 Largest concise Abelian subgroup C1      NOp   1
                         Standard orientation:                         
 ---------------------------------------------------------------------
 Center     Atomic      Atomic             Coordinates (Angstroms)
 Number     Number       Type             X           Y           Z
 ---------------------------------------------------------------------
      1          6           0        2.907058    0.158548   -0.000004
      2         80           0        0.813495   -0.034940    0.000002
      3          1           0        3.213160    0.710452    0.898992
      4          1           0        3.213509    0.706547   -0.901274
      5          1           0        3.356306   -0.843758    0.002238
      6         53           0       -1.741603    0.023975   -0.000001
 ---------------------------------------------------------------------
 Rotational constants (GHZ):         127.8071521           0.7734751           0.7726617
 Standard basis: def2SVP (5D, 7F)
 There are    95 symmetry adapted cartesian basis functions of A   symmetry.
 There are    87 symmetry adapted basis functions of A   symmetry.
    87 basis functions,   178 primitive gaussians,    95 cartesian basis functions
    27 alpha electrons       27 beta electrons
       nuclear repulsion energy       180.0125887633 Hartrees.
 NAtoms=    6 NActive=    6 NUniq=    6 SFac= 1.00D+00 NAtFMM=   60 NAOKFM=F Big=F
 Integral buffers will be    131072 words long.
 Raffenetti 2 integral format.
 Two-electron integral symmetry is turned on.
 R6APFD:  NTU= -4 IXU= 1 FactS= 1.050
 Nuclear repulsion after empirical dispersion term =      179.9882968334 Hartrees.
 One-electron integrals computed using PRISM.
 PrsmSu:  requested number of processors reduced to:  13 ShMem   1 Linda.
   1 Symmetry operations used in ECPInt.
 ECPInt:  NShTT=     703 NPrTT=    2482 LenC2=     700 LenP2D=    2102.
 LDataN:  DoStor=T MaxTD1= 8 Len=  415
 NBasis=    87 RedAO= T EigKep=  8.75D-03  NBF=    87
 NBsUse=    87 1.00D-06 EigRej= -1.00D+00 NBFU=    87
 Defaulting to unpruned grid for atomic number  80.
 Defaulting to unpruned grid for atomic number  53.
 Lowest energy guess from the checkpoint file:  "ch3hgI_gas_apfd_def2svp.chk"
 B after Tr=     0.000000    0.000000    0.000000
         Rot=    0.999959    0.009056    0.000005   -0.000390 Ang=   1.04 deg.
 B after Tr=     0.000000   -0.000000   -0.000000
         Rot=    1.000000   -0.000000   -0.000000   -0.000000 Ang=   0.00 deg.
 Keep R1 ints in memory in canonical form, NReq=29340404.
 Requested convergence on RMS density matrix=1.00D-08 within 128 cycles.
 Requested convergence on MAX density matrix=1.00D-06.
 Requested convergence on             energy=1.00D-06.
 No special actions if energy rises.
 Integral accuracy reduced to 1.0D-05 until final iterations.
 Defaulting to unpruned grid for atomic number  80.
 Defaulting to unpruned grid for atomic number  80.
 Defaulting to unpruned grid for atomic number  80.
 Defaulting to unpruned grid for atomic number  80.
 Defaulting to unpruned grid for atomic number  80.
 Defaulting to unpruned grid for atomic number  80.
 Defaulting to unpruned grid for atomic number  80.
 Defaulting to unpruned grid for atomic number  80.
 Defaulting to unpruned grid for atomic number  80.
 Defaulting to unpruned grid for atomic number  80.
 Defaulting to unpruned grid for atomic number  80.
 Defaulting to unpruned grid for atomic number  80.
 Defaulting to unpruned grid for atomic number  80.
 Defaulting to unpruned grid for atomic number  80.
 Defaulting to unpruned grid for atomic number  80.
 Defaulting to unpruned grid for atomic number  80.
 Defaulting to unpruned grid for atomic number  80.
 Defaulting to unpruned grid for atomic number  80.
 Defaulting to unpruned grid for atomic number  80.
 Defaulting to unpruned grid for atomic number  80.
 Defaulting to unpruned grid for atomic number  80.
 Defaulting to unpruned grid for atomic number  80.
 Defaulting to unpruned grid for atomic number  80.
 Defaulting to unpruned grid for atomic number  80.
 Initial convergence to 1.0D-05 achieved.  Increase integral accuracy.
 SCF Done:  E(RAPFD) =  -491.193682264     A.U. after   11 cycles
            NFock= 11  Conv=0.65D-08     -V/T= 3.4089
 R6APFD:  NTU= -4 IXU= 1 FactS= 1.050
 PrsmSu:  requested number of processors reduced to:  11 ShMem   1 Linda.
   1 Symmetry operations used in ECPInt.
 ECPInt:  NShTT=     703 NPrTT=    2482 LenC2=     700 LenP2D=    2102.
 LDataN:  DoStor=T MaxTD1= 9 Len=  602
 Calling FoFJK, ICntrl=      2127 FMM=F ISym2X=0 I1Cent= 0 IOpClX= 0 NMat=1 NMatS=1 NMatT=0.
 Defaulting to unpruned grid for atomic number  80.
 Defaulting to unpruned grid for atomic number  80.
 Defaulting to unpruned grid for atomic number  80.
 Defaulting to unpruned grid for atomic number  80.
 Defaulting to unpruned grid for atomic number  80.
 Defaulting to unpruned grid for atomic number  80.
 Defaulting to unpruned grid for atomic number  80.
 Defaulting to unpruned grid for atomic number  80.
 Defaulting to unpruned grid for atomic number  80.
 Defaulting to unpruned grid for atomic number  80.
 Defaulting to unpruned grid for atomic number  80.
 Defaulting to unpruned grid for atomic number  80.
 Defaulting to unpruned grid for atomic number  80.
 Defaulting to unpruned grid for atomic number  80.
 Defaulting to unpruned grid for atomic number  80.
 Defaulting to unpruned grid for atomic number  80.
 Defaulting to unpruned grid for atomic number  80.
 Defaulting to unpruned grid for atomic number  80.
 Defaulting to unpruned grid for atomic number  80.
 Defaulting to unpruned grid for atomic number  80.
 Defaulting to unpruned grid for atomic number  80.
 Defaulting to unpruned grid for atomic number  80.
 Defaulting to unpruned grid for atomic number  80.
 Defaulting to unpruned grid for atomic number  80.
 ***** Axes restored to original set *****
 -------------------------------------------------------------------
 Center     Atomic                   Forces (Hartrees/Bohr)
 Number     Number              X              Y              Z
 -------------------------------------------------------------------
      1        6           0.001580451    0.003689509    0.001589110
      2       80          -0.009203033   -0.005659780   -0.002151150
      3        1           0.000560034    0.000394520   -0.000124986
      4        1           0.000578441    0.000183571    0.000341759
      5        1          -0.000745771   -0.000840405   -0.000346835
      6       53           0.007229877    0.002232585    0.000692102
 -------------------------------------------------------------------
 Cartesian Forces:  Max     0.009203033 RMS     0.003333994

 GradGradGradGradGradGradGradGradGradGradGradGradGradGradGradGradGradGrad
 Berny optimization.
 Using GEDIIS/GDIIS optimizer.
 FormGI is forming the generalized inverse of G from B-inverse, IUseBI=4.
 Internal  Forces:  Max     0.010487812 RMS     0.003206701
 Search for a local minimum.
 Step number   5 out of a maximum of   27
 All quantities printed in internal units (Hartrees-Bohrs-Radians)
 Mixed Optimization -- RFO/linear search
 Update second derivatives using D2CorX and points    1    4    3    5    2
 The second derivative matrix:
                          R1        R2        R3        R4        R5
           R1           0.13303
           R2          -0.01202   0.31891
           R3          -0.01203  -0.00778   0.31887
           R4          -0.01203  -0.00778  -0.00779   0.31884
           R5          -0.00742  -0.00570  -0.00573  -0.00562   0.12638
           A1           0.00175  -0.00017  -0.00017  -0.00019  -0.00472
           A2           0.00123  -0.00034  -0.00034  -0.00036  -0.00413
           A3           0.00095  -0.00028  -0.00028  -0.00026  -0.00295
           A4          -0.00144   0.00059   0.00059   0.00060   0.00519
           A5          -0.00117   0.00015   0.00015   0.00015   0.00329
           A6          -0.00118   0.00008   0.00008   0.00008   0.00313
           A7          -0.00033   0.00004   0.00005  -0.00012  -0.00088
           A8          -0.00006  -0.00002  -0.00002  -0.00002   0.00013
           D1           0.00027   0.00050   0.00050   0.00049   0.00099
           D2          -0.00052  -0.00069  -0.00069  -0.00069  -0.00126
           D3           0.00063   0.00084   0.00085   0.00084   0.00150
           D4           0.00115   0.00153   0.00153   0.00153   0.00276
                          A1        A2        A3        A4        A5
           A1           0.15989
           A2           0.00001   0.16018
           A3          -0.00094  -0.00127   0.16206
           A4           0.00017   0.00007   0.00083   0.15980
           A5           0.00046   0.00053  -0.00043  -0.00044   0.15997
           A6           0.00040   0.00045  -0.00025  -0.00040  -0.00008
           A7           0.00421   0.00634  -0.01416  -0.00327   0.00399
           A8           0.00000   0.00000  -0.00001  -0.00000   0.00000
           D1           0.00034   0.00053  -0.00117  -0.00023   0.00031
           D2           0.00007   0.00008  -0.00023  -0.00008   0.00008
           D3           0.00002   0.00006  -0.00008   0.00001  -0.00000
           D4          -0.00005  -0.00003   0.00015   0.00009  -0.00008
                          A6        A7        A8        D1        D2
           A6           0.15989
           A7           0.00282   0.09045
           A8           0.00000   0.00004   0.00230
           D1           0.00021   0.00734   0.00000   0.00291
           D2           0.00007   0.00123   0.00000   0.00008   0.00234
           D3          -0.00002   0.00071   0.00000   0.00008  -0.00002
           D4          -0.00009  -0.00053   0.00000  -0.00000  -0.00006
                          D3        D4
           D3           0.00234
           D4           0.00006   0.00241
 ITU=  0 -1 -1  1  0
 Use linear search instead of GDIIS.
 Energy rises -- skip Quadratic/GDIIS search.
 Quartic linear search produced a step of -0.88773.
 Iteration  1 RMS(Cart)=  0.05656678 RMS(Int)=  0.00196794
[...]
     4   1    -0.17  -0.27   0.48     0.20   0.28  -0.52    -0.17  -0.25   0.43
     5   1    -0.17   0.55  -0.01    -0.25   0.72  -0.00    -0.09   0.26  -0.02
     6  53     0.00   0.00  -0.00    -0.00  -0.00   0.00     0.00  -0.00  -0.00

 -------------------
 - Thermochemistry -
 -------------------
 Temperature   298.150 Kelvin.  Pressure   1.00000 Atm.
 Atom     1 has atomic number  6 and mass  12.00000
 Atom     2 has atomic number 80 and mass 201.97060
 Atom     3 has atomic number  1 and mass   1.00783
 Atom     4 has atomic number  1 and mass   1.00783
 Atom     5 has atomic number  1 and mass   1.00783
 Atom     6 has atomic number 53 and mass 126.90040
 Molecular mass:   343.89448 amu.
 Principal axes and moments of inertia in atomic units:
                           1         2         3
     Eigenvalues --    11.639932379.036502379.03660
           X            1.00000  -0.00000  -0.00000
           Y            0.00000   1.00000  -0.00143
           Z            0.00000   0.00143   1.00000
 This molecule is an asymmetric top.
 Rotational symmetry number  1.
 Rotational temperatures (Kelvin)      7.44110     0.03641     0.03641
 Rotational constants (GHZ):         155.04740     0.75860     0.75860
 Zero-point vibrational energy      96214.2 (Joules/Mol)
                                   22.99573 (Kcal/Mol)
 Warning -- explicit consideration of   4 degrees of freedom as
           vibrations may cause significant error
 Vibrational temperatures:    152.97   153.14   289.00   841.65  1111.36
          (Kelvin)           1111.42  1725.24  2055.50  2055.52  4428.22
                             4609.88  4609.90
 
 Zero-point correction=                           0.036646 (Hartree/Particle)
 Thermal correction to Energy=                    0.041855
 Thermal correction to Enthalpy=                  0.042799
 Thermal correction to Gibbs Free Energy=         0.005313
 Sum of electronic and zero-point Energies=           -491.157854
 Sum of electronic and thermal Energies=              -491.152645
 Sum of electronic and thermal Enthalpies=            -491.151701
 Sum of electronic and thermal Free Energies=         -491.189187
 
                     E (Thermal)             CV                S
                      KCal/Mol        Cal/Mol-Kelvin    Cal/Mol-Kelvin
 Total                   26.264             14.544             78.895
 Electronic               0.000              0.000              0.000
 Translational            0.889              2.981             43.400
 Rotational               0.889              2.981             25.691
 Vibrational             24.487              8.583              9.804
 Vibration     1          0.605              1.944              3.335
 Vibration     2          0.605              1.944              3.333
 Vibration     3          0.638              1.839              2.125
 Vibration     4          0.942              1.064              0.476
                       Q            Log10(Q)             Ln(Q)
 Total Bot       0.359784D-02         -2.443958         -5.627420
 Total V=0       0.258246D+15         14.412034         33.184934
 Vib (Bot)       0.156217D-15        -15.806271        -36.395284
 Vib (Bot)    1  0.192782D+01          0.285066          0.656388
 Vib (Bot)    2  0.192570D+01          0.284590          0.655292
 Vib (Bot)    3  0.992349D+00         -0.003336         -0.007680
 Vib (Bot)    4  0.259195D+00         -0.586373         -1.350173
 Vib (V=0)       0.112130D+02          1.049720          2.417070
 Vib (V=0)    1  0.249160D+01          0.396478          0.912925
 Vib (V=0)    2  0.248956D+01          0.396122          0.912105
 Vib (V=0)    3  0.161120D+01          0.207148          0.476977
 Vib (V=0)    4  0.106319D+01          0.026611          0.061273
 Electronic      0.100000D+01          0.000000          0.000000
 Translational   0.250664D+09          8.399092         19.339623
 Rotational      0.918802D+05          4.963222         11.428241
 ***** Axes restored to original set *****
 -------------------------------------------------------------------
 Center     Atomic                   Forces (Hartrees/Bohr)
 Number     Number              X              Y              Z
 -------------------------------------------------------------------
      1        6          -0.000053254   -0.000004759   -0.000001232
      2       80           0.000007188    0.000001065    0.000000033
      3        1           0.000011123    0.000003533   -0.000000845
      4        1           0.000009903    0.000002095    0.000003639
      5        1           0.000008822   -0.000002452   -0.000001508
      6       53           0.000016218    0.000000518   -0.000000086
 -------------------------------------------------------------------
 Cartesian Forces:  Max     0.000053254 RMS     0.000013974
 FormGI is forming the generalized inverse of G from B-inverse, IUseBI=4.

 GradGradGradGradGradGradGradGradGradGradGradGradGradGradGradGradGradGrad
 Berny optimization.
 Internal  Forces:  Max     0.000023450 RMS     0.000008089
 Search for a local minimum.
 Step number   1 out of a maximum of    2
 All quantities printed in internal units (Hartrees-Bohrs-Radians)
 Second derivative matrix not updated -- analytic derivatives used.
 The second derivative matrix:
                          R1        R2        R3        R4        R5
           R1           0.18106
           R2           0.00120   0.35360
           R3           0.00120  -0.00027   0.35359
           R4           0.00120  -0.00027  -0.00027   0.35359
           R5           0.00297   0.00039   0.00039   0.00039   0.12285
           A1           0.00237  -0.00082  -0.00038  -0.00134   0.00059
           A2           0.00373   0.00004  -0.00055  -0.00349   0.00092
           A3           0.00733  -0.00317  -0.00310  -0.00159   0.00182
           A4          -0.00085   0.00350   0.00345  -0.00604  -0.00021
           A5          -0.00580   0.00638  -0.00576   0.00559  -0.00144
           A6          -0.00653  -0.00601   0.00626   0.00674  -0.00162
           A7          -0.00000   0.00005   0.00005  -0.00010   0.00000
           A8          -0.00000  -0.00003   0.00004   0.00000  -0.00000
           D1           0.00467   0.00111   0.00127  -0.00738   0.00116
           D2          -0.00391  -0.00088   0.00580  -0.00073  -0.00097
           D3           0.00513  -0.00548   0.00118  -0.00120   0.00127
           D4           0.00904  -0.00460  -0.00462  -0.00047   0.00224
                          A1        A2        A3        A4        A5
           A1           0.01519
           A2          -0.00698   0.02843
           A3          -0.00977  -0.01645   0.05557
           A4          -0.00729  -0.00119   0.02165   0.03549
           A5          -0.01141   0.02067  -0.02859  -0.02148   0.06608
           A6           0.02024  -0.02438  -0.02182  -0.02692  -0.02566
           A7           0.00428   0.00638  -0.01437  -0.00316   0.00396
           A8          -0.00242   0.00319  -0.00039   0.00026   0.00149
           D1           0.00992   0.00812  -0.00902   0.01160  -0.01416
           D2          -0.00576   0.00621  -0.00489   0.00854  -0.00814
           D3          -0.00239   0.01008   0.00079  -0.00433  -0.00756
           D4           0.00337   0.00388   0.00568  -0.01287   0.00058
                          A6        A7        A8        D1        D2
           A6           0.07801
           A7           0.00283   0.09028
           A8          -0.00213  -0.00000   0.01376
           D1          -0.00627   0.00723  -0.00085   0.02400
           D2           0.00396   0.00118   0.00230   0.00186   0.01488
           D3           0.00358   0.00071   0.00239   0.00065   0.00696
           D4          -0.00038  -0.00047   0.00008  -0.00122  -0.00792
                          D3        D4
           D3           0.01493
           D4           0.00798   0.01590
 ITU=  0
     Eigenvalues ---    0.01258   0.02963   0.03419   0.05004   0.08669
     Eigenvalues ---    0.11716   0.11736   0.12316   0.18379   0.35344
     Eigenvalues ---    0.35453   0.35462
 Angle between quadratic step and forces=  43.31 degrees.
 Linea Iteration  1 RMS(Cart Iteration  1 RMS Iteration  1 RMS(Cart)=  0.00007846 RMS(Int)=  0.00000001
 Iteration  2 RMS(Cart)=  0.00000001 RMS(Int)=  0.00000001
 Variable       Old X    -DE/DX   Delta X   Delta X   Delta X     New X
                                 (Linear)    (Quad)   (Total)
    R1        3.95659   0.00002   0.00000   0.00017   0.00017   3.95676
    R2        2.07434  -0.00001   0.00000  -0.00002  -0.00002   2.07431
    R3        2.07434  -0.00001   0.00000  -0.00003  -0.00003   2.07431
    R4        2.07434  -0.00001   0.00000  -0.00003  -0.00003   2.07431
    R5        4.88393   0.00002   0.00000   0.00014   0.00014   4.88407
    A1        1.90130  -0.00000   0.00000  -0.00015  -0.00015   1.90114
    A2        1.90125  -0.00000   0.00000  -0.00011  -0.00011   1.90114
    A3        1.90121  -0.00000   0.00000  -0.00007  -0.00007   1.90114
    A4        1.91991   0.00000   0.00000   0.00012   0.00012   1.92003
    A5        1.91993   0.00000   0.00000   0.00010   0.00010   1.92003
    A6        1.91992   0.00000   0.00000   0.00011   0.00011   1.92003
    A7        3.14153   0.00000   0.00000   0.00005   0.00005   3.14157
    A8        3.14166  -0.00000   0.00000  -0.00007  -0.00007   3.14159
    D1        2.08286  -0.00000   0.00000  -0.00018  -0.00018   2.08267
    D2       -2.08284   0.00000   0.00000   0.00017   0.00017  -2.08267
    D3        2.08279  -0.00000   0.00000  -0.00011  -0.00011   2.08267
    D4       -2.11755  -0.00001   0.00000  -0.00028  -0.00028  -2.11784
         Item               Value     Threshold  Converged?
 Maximum Force            0.000023     0.000450     YES
 RMS     Force            0.000008     0.000300     YES
 Maximum Displacement     0.000195     0.001800     YES
 RMS     Displacement     0.000078     0.001200     YES
 Predicted change in Energy=-6.516380D-09
 Optimization completed.
    -- Stationary point found.
                           ----------------------------
                           !   Optimized Parameters   !
                           ! (Angstroms and Degrees)  !
 --------------------------                            --------------------------
 ! Name  Definition              Value          Derivative Info.                !
 --------------------------------------------------------------------------------
 ! R1    R(1,2)                  2.0937         -DE/DX =    0.0                 !
 ! R2    R(1,3)                  1.0977         -DE/DX =    0.0                 !
 ! R3    R(1,4)                  1.0977         -DE/DX =    0.0                 !
 ! R4    R(1,5)                  1.0977         -DE/DX =    0.0                 !
 ! R5    R(2,6)                  2.5845         -DE/DX =    0.0                 !
 ! A1    A(2,1,3)              108.9363         -DE/DX =    0.0                 !
 ! A2    A(2,1,4)              108.9337         -DE/DX =    0.0                 !
 ! A3    A(2,1,5)              108.9314         -DE/DX =    0.0                 !
 ! A4    A(3,1,4)              110.0026         -DE/DX =    0.0                 !
 ! A5    A(3,1,5)              110.0036         -DE/DX =    0.0                 !
 ! A6    A(4,1,5)              110.0035         -DE/DX =    0.0                 !
 ! A7    L(1,2,6,5,-1)         179.9962         -DE/DX =    0.0                 !
 ! A8    L(1,2,6,5,-2)         180.0039         -DE/DX =    0.0                 !
 ! D1    D(2,1,4,3)            119.3389         -DE/DX =    0.0                 !
 ! D2    D(2,1,5,3)           -119.3381         -DE/DX =    0.0                 !
 ! D3    D(2,1,5,4)            119.3349         -DE/DX =    0.0                 !
 ! D4    D(3,1,5,4)           -121.327          -DE/DX =    0.0                 !
 --------------------------------------------------------------------------------
 GradGradGradGradGradGradGradGradGradGradGradGradGradGradGradGradGradGrad


 ----------------------------------------------------------------------

 Electric dipole moment (input orientation):
 (Debye = 10**-18 statcoulomb cm , SI units = C m)
                  (au)            (Debye)         (10**-30 SI)
   Tot        0.120393D+01      0.306009D+01      0.102074D+02
   x         -0.119840D+01     -0.304603D+01     -0.101604D+02
   y         -0.115292D+00     -0.293044D+00     -0.977489D+00
   z          0.139020D-03      0.353355D-03      0.117866D-02

 Dipole polarizability, Alpha (input orientation).
 (esu units = cm**3 , SI units = C**2 m**2 J**-1)
 Alpha(0;0):
               (au)            (10**-24 esu)      (10**-40 SI)
   iso        0.701889D+02      0.104009D+02      0.115726D+02
   aniso      0.730678D+02      0.108275D+02      0.120473D+02
   xx         0.118231D+03      0.175200D+02      0.194936D+02
   yx         0.696442D+01      0.103202D+01      0.114828D+01
   yy         0.465029D+02      0.689102D+01      0.766729D+01
   zx        -0.856621D-02     -0.126938D-02     -0.141238D-02
   zy        -0.823301D-03     -0.122001D-03     -0.135744D-03
   zz         0.458330D+02      0.679176D+01      0.755685D+01

 ----------------------------------------------------------------------

 Dipole orientation:
     6         -0.65391713          6.77911193         16.82215315
    80         -0.65391758          6.77887063         12.86556353
     1          0.63352080          5.29853389         17.49539849
     1         -2.57992599          6.40452456         17.49524509
     1         -0.01537877          8.63448001         17.49503104
    53         -0.65393533          6.77892170          7.98163737

 Electric dipole moment (dipole orientation):
 (Debye = 10**-18 statcoulomb cm , SI units = C m)
                  (au)            (Debye)         (10**-30 SI)
   Tot        0.120393D+01      0.306009D+01      0.102074D+02
   x          0.000000D+00      0.000000D+00      0.000000D+00
   y          0.000000D+00      0.000000D+00      0.000000D+00
   z          0.120393D+01      0.306009D+01      0.102074D+02

 Dipole polarizability, Alpha (dipole orientation).
 (esu units = cm**3 , SI units = C**2 m**2 J**-1)
 Alpha(0;0):
               (au)            (10**-24 esu)      (10**-40 SI)
   iso        0.701889D+02      0.104009D+02      0.115726D+02
   aniso      0.730678D+02      0.108275D+02      0.120473D+02
   xx         0.458330D+02      0.679176D+01      0.755685D+01
   yx         0.000000D+00      0.000000D+00      0.000000D+00
   yy         0.458330D+02      0.679174D+01      0.755683D+01
   zx         0.106780D-03      0.158231D-04      0.176056D-04
   zy         0.648609D-03      0.961140D-04      0.106941D-03
   zz         0.118901D+03      0.176193D+02      0.196041D+02

 ----------------------------------------------------------------------
 1\1\GINC-GRANADO-COMPUTE-3\Freq\RAPFD\def2SVP\C1H3Hg1I1\ROOT\25-Aug-20
 22\0\\#N Geom=AllCheck Guess=TCheck SCRF=Check GenChk RAPFD/def2SVP Fr
 eq\\Optimization MeHgI-gas-apfd-def2svp phase\\0,1\C,-9.2061188532,2.7
 349651176,0.0001161933\Hg,-7.1219921378,2.9353414157,-0.0001380387\H,-
 9.4797460691,1.8596095868,0.6032797984\H,-9.5512370136,2.6015922384,-1
 .0333410398\H,-9.650995733,3.6414763697,0.4305263221\I,-4.5494101933,3
 .1828652718,-0.0004432354\\Version=EM64L-G16RevA.03\State=1-A\HF=-491.
 1944999\RMSD=1.311e-09\RMSF=1.397e-05\ZeroPoint=0.036646\Thermal=0.041
 8548\Dipole=-1.1983989,-0.1152923,0.000139\DipoleDeriv=-0.0780484,0.00
 99386,-0.0000154,0.0099189,-0.1805654,-0.0000006,-0.0000083,-0.0000004
 ,-0.1815214,1.3477844,0.0986122,-0.0001229,0.0986189,0.3321823,-0.0000
 091,-0.000124,-0.0000093,0.3226904,-0.0902707,-0.0763117,0.0428081,-0.
 0306862,0.0119377,0.0441211,0.0103979,0.0410102,0.0485658,-0.0969689,-
 0.0243913,-0.0790657,-0.0190034,0.0736412,-0.0156859,-0.0235415,-0.010
 3495,-0.0064431,-0.1076512,0.0622846,0.0363094,0.0113009,0.0153621,-0.
 0284332,0.0131893,-0.0306588,0.0625169,-0.9748453,-0.0701325,0.0000864
 ,-0.070149,-0.2525579,0.0000077,0.0000866,0.0000077,-0.2458086\Polar=1
 18.230868,6.9644245,46.5029137,-0.0085662,-0.0008233,45.8330476\Quadru
 pole=-0.2671882,0.1317459,0.1354423,-0.0387049,0.0000609,0.0000158\PG=
 C01 [X(C1H3Hg1I1)]\NImag=0\\0.33732783,-0.01980286,0.54162519,0.000025
 19,0.00000005,0.54352796,-0.15351755,-0.01211448,0.00001578,0.29555004
 ,-0.01211685,-0.02867317,0.00000134,0.02514497,0.03647969,0.00001525,0
 .00000153,-0.02750745,-0.00003266,-0.00000592,0.03406741,-0.04857257,-
 0.06717029,0.04741066,-0.00664502,-0.01348703,0.00920230,0.05330427,-0
 .05488416,-0.22978877,0.12814264,0.00066590,0.00064546,-0.00118496,0.0
 6019754,0.24109007,0.03868232,0.12730498,-0.13192728,-0.00085047,-0.00
 215001,0.00037724,-0.04200314,-0.13719040,0.13678420,-0.06001000,-0.01
 113299,-0.09906834,-0.00761522,-0.00212650,-0.01546766,0.00184764,0.00
 159436,0.00853143,0.06459035,-0.00968355,-0.04840607,-0.03451117,-0.00
 045557,-0.00123670,-0.00106598,0.00907935,0.00432296,0.02313033,0.0109
 9464,0.04670384,-0.08411236,-0.03307343,-0.30186546,0.00175917,0.00059
 052,0.00322886,-0.00528577,-0.00481503,-0.01231009,0.09117969,0.035684
 35,0.31987799,-0.08009231,0.11039004,0.05161644,-0.00890033,0.01307630
 ,0.00626963,0.00282102,-0.00773444,-0.00404590,0.00378796,-0.00971503,
 -0.00402901,0.08478035,0.09665430,-0.24135129,-0.09363284,-0.00274854,
 0.00361842,0.00225406,0.01023063,-0.01610559,-0.01141658,0.00077384,-0
 .00155014,0.00163783,-0.10427961,0.25603343,0.04538936,-0.09423311,-0.
 08883809,-0.00090476,0.00156282,-0.00034174,-0.00830709,0.01479347,0.0
 0714743,0.01313215,-0.02332901,-0.00837513,-0.04913623,0.10150313,0.09
 035632,0.00486460,-0.00016942,0.00000028,-0.11887192,-0.01049088,0.000
 01314,-0.00275535,0.00016080,-0.00031424,-0.00260073,-0.00021984,0.000
 48829,-0.00239669,-0.00063063,-0.00017342,0.12176008,-0.00016689,0.006
 59412,-0.00000002,-0.01049228,-0.01083370,0.00000126,0.00114980,-0.000
 16412,0.00032167,-0.00010334,0.00016611,-0.00002424,-0.00173726,-0.000
 64483,-0.00029731,0.01134998,0.00488243,0.00000024,-0.00000002,0.00661
 032,0.00001295,0.00000124,-0.00982432,-0.00101695,0.00025428,-0.000071
 50,0.00169273,0.00009147,-0.00055617,-0.00067493,-0.00034561,0.0000512
 1,-0.00001404,-0.00000136,0.00379046\\0.00005325,0.00000476,0.00000123
 ,-0.00000719,-0.00000106,-0.00000003,-0.00001112,-0.00000353,0.0000008
 5,-0.00000990,-0.00000209,-0.00000364,-0.00000882,0.00000245,0.0000015
 1,-0.00001622,-0.00000052,0.00000009\\\@


 We're simply so accustomed to the marvels of everyday thought
 that we never wonder about it.
 -- Marvin Minsky in "Why people think computers are smart"
 Job cpu time:       0 days  0 hours 25 minutes 13.8 seconds.
 Elapsed time:       0 days  0 hours 22 minutes  2.5 seconds.
 File lengths (MBytes):  RWF=     11 Int=      0 D2E=      0 Chk=      2 Scr=      1
 Normal termination of Gaussian 16 at Thu Aug 25 16:03:16 2022.
 0 D2E=      0 Chk=      2 Scr=      1
 Normal termination of Gaussian 16 at Thu Aug 25 16:03:09 2022.
:       0 days  0 hours 24 minutes 59.3 seconds.
 Elapsed time:       0 days  0 hours 22 minutes 30.1 seconds.
 File lengths (MBytes):  RWF=     11 Int=      0 D2E=      0 Chk=      2 Scr=      1
 Normal termination of Gaussian 16 at Thu Aug 25 16:03:05 2022.
0.00000719,-0.00000107,-0.00000003,-0.00001112,-0.00000353,0.00000085
 ,-0.00000990,-0.00000210,-0.00000364,-0.00000882,0.00000245,0.00000151
 ,-0.00001622,-0.00000052,0.00000009\\\@


 AND THIS OUR LIFE, EXEMPT FROM PUBLIC HAUNT,
 FINDS TONGUES IN TREES, BOOKS IN THE RUNNING BROOKS,
 SERMONS IN STONES, AND GOOD IN EVERYTHING.
 I WOULD NOT CHANGE IT. -- W. SHAKESPEARE
 AS YOU LIKE IT, ACT II, SCENE 1.
 Job cpu time:       0 days  0 hours 24 minutes 57.8 seconds.
 Elapsed time:       0 days  0 hours 23 minutes 37.5 seconds.
 File lengths (MBytes):  RWF=     11 Int=      0 D2E=      0 Chk=      2 Scr=      1
 Normal termination of Gaussian 16 at Thu Aug 25 16:00:34 2022.
