 Entering Gaussian System, Link 0=g16
 Input=input.gjf
 Output=input.log
 Initial command:
 /opt/ohpc/pub/apps/gaussian/G16x86_64_legacy_CPUs_linux_binary/g16/l1.exe "/tmp/Gau-20907.inp" -scrdir="/tmp/"
 Entering Link 1 = /opt/ohpc/pub/apps/gaussian/G16x86_64_legacy_CPUs_linux_binary/g16/l1.exe PID=     20883.
  
 Copyright (c) 1988,1990,1992,1993,1995,1998,2003,2009,2016,
            Gaussian, Inc.  All Rights Reserved.
  
 This is part of the Gaussian(R) 16 program.  It is based on
 the Gaussian(R) 09 system (copyright 2009, Gaussian, Inc.),
 the Gaussian(R) 03 system (copyright 2003, Gaussian, Inc.),
 the Gaussian(R) 98 system (copyright 1998, Gaussian, Inc.),
 the Gaussian(R) 94 system (copyright 1995, Gaussian, Inc.),
 the Gaussian 92(TM) system (copyright 1992, Gaussian, Inc.),
 the Gaussian 90(TM) system (copyright 1990, Gaussian, Inc.),
 the Gaussian 88(TM) system (copyright 1988, Gaussian, Inc.),
 the Gaussian 86(TM) system (copyright 1986, Carnegie Mellon
 University), and the Gaussian 82(TM) system (copyright 1983,
 Carnegie Mellon University). Gaussian is a federally registered
 trademark of Gaussian, Inc.
  
 This software contains proprietary and confidential information,
 including trade secrets, belonging to Gaussian, Inc.
  
 This software is provided under written license and may be
 used, copied, transmitted, or stored only in accord with that
 written license.
  
 The following legend is applicable only to US Government
 contracts under FAR:
  
                    RESTRICTED RIGHTS LEGEND
  
 Use, reproduction and disclosure by the US Government is
 subject to restrictions as set forth in subparagraphs (a)
 and (c) of the Commercial Computer Software - Restricted
 Rights clause in FAR 52.227-19.
  
 Gaussian, Inc.
 340 Quinnipiac St., Bldg. 40, Wallingford CT 06492
  
  
 ---------------------------------------------------------------
 Warning -- This program may not be used in any manner that
 competes with the business of Gaussian, Inc. or will provide
 assistance to any competitor of Gaussian, Inc.  The licensee
 of this program is prohibited from giving any competitor of
 Gaussian, Inc. access to this program.  By using this program,
 the user acknowledges that Gaussian, Inc. is engaged in the
 business of creating and licensing software in the field of
 computational chemistry and represents and warrants to the
 licensee that it is not a competitor of Gaussian, Inc. and that
 it will not use this program in any manner prohibited above.
 ---------------------------------------------------------------
  

 Cite this work as:
 Gaussian 16, Revision A.03,
 M. J. Frisch, G. W. Trucks, H. B. Schlegel, G. E. Scuseria, 
 M. A. Robb, J. R. Cheeseman, G. Scalmani, V. Barone, 
 G. A. Petersson, H. Nakatsuji, X. Li, M. Caricato, A. V. Marenich, 
 J. Bloino, B. G. Janesko, R. Gomperts, B. Mennucci, H. P. Hratchian, 
 J. V. Ortiz, A. F. Izmaylov, J. L. Sonnenberg, D. Williams-Young, 
 F. Ding, F. Lipparini, F. Egidi, J. Goings, B. Peng, A. Petrone, 
 T. Henderson, D. Ranasinghe, V. G. Zakrzewski, J. Gao, N. Rega, 
 G. Zheng, W. Liang, M. Hada, M. Ehara, K. Toyota, R. Fukuda, 
 J. Hasegawa, M. Ishida, T. Nakajima, Y. Honda, O. Kitao, H. Nakai, 
 T. Vreven, K. Throssell, J. A. Montgomery, Jr., J. E. Peralta, 
 F. Ogliaro, M. J. Bearpark, J. J. Heyd, E. N. Brothers, K. N. Kudin, 
 V. N. Staroverov, T. A. Keith, R. Kobayashi, J. Normand, 
 K. Raghavachari, A. P. Rendell, J. C. Burant, S. S. Iyengar, 
 J. Tomasi, M. Cossi, J. M. Millam, M. Klene, C. Adamo, R. Cammi, 
 J. W. Ochterski, R. L. Martin, K. Morokuma, O. Farkas, 
 J. B. Foresman, and D. J. Fox, Gaussian, Inc., Wallingford CT, 2016.
 
 ******************************************
 Gaussian 16:  EM64L-G16RevA.03 25-Dec-2016
                13-Aug-2023 
 ******************************************
 %NProcShared=24
 Will use up to   24 processors via shared memory.
 %Chk=sh_gas_afdd.chk
 ------------------------------------------------
 #Opt Freq mp2/Def2svp int=UltraFine scf=xqc Test
 ------------------------------------------------
 1/18=20,19=15,38=1/1,3;
 2/9=110,12=2,17=6,18=5,40=1/2;
 3/5=43,7=101,11=9,25=1,30=1,71=1,75=-5/1,2,3;
 4//1;
 5/5=2,8=3,13=1,38=5/2,8;
 8/6=4,10=1/1;
 9/15=2,16=-3/6;
 10/5=1/2;
 6/7=2,8=2,9=2,10=2/1;
 7/12=2/1,2,3,16;
 1/18=20,19=15/3(2);
 2/9=110/2;
 99//99;
 2/9=110/2;
 3/5=43,7=101,11=9,25=1,30=1,71=1,75=-5/1,2,3;
 4/5=5,16=3,69=1/1;
 5/5=2,8=3,13=1,38=5/2,8;
 8/6=4,10=1/1;
 9/15=2,16=-3/6;
 10/5=1/2;
 7/12=2/1,2,3,16;
 1/18=20,19=15/3(-8);
 2/9=110/2;
 6/7=2,8=2,9=2,10=2/1;
 99//99;
 -------------------------
 Optimization sh-solvation
 -------------------------
 Symbolic Z-matrix:
 Charge = -1 Multiplicity = 1
 S                    -3.47703   0.30495   0. 
 H                    -2.11662   0.30495   0. 
 

 GradGradGradGradGradGradGradGradGradGradGradGradGradGradGradGradGradGrad
 Berny optimization.
 Initialization pass.
                           ----------------------------
                           !    Initial Parameters    !
                           ! (Angstroms and Degrees)  !
 --------------------------                            --------------------------
 ! Name  Definition              Value          Derivative Info.                !
 --------------------------------------------------------------------------------
 ! R1    R(1,2)                  1.3604         estimate D2E/DX2                !
 --------------------------------------------------------------------------------
 Trust Radius=3.00D-01 FncErr=1.00D-07 GrdErr=1.00D-07 EigMax=2.50D+02 EigMin=1.00D-04
 Number of steps in this run=     20 maximum allowed number of steps=    100.
 GradGradGradGradGradGradGradGradGradGradGradGradGradGradGradGradGradGrad

                          Input orientation:                          
 ---------------------------------------------------------------------
 Center     Atomic      Atomic             Coordinates (Angstroms)
 Number     Number       Type             X           Y           Z
 ---------------------------------------------------------------------
      1         16           0       -3.477033    0.304950    0.000000
      2          1           0       -2.116617    0.304950    0.000000
 ---------------------------------------------------------------------
 Stoichiometry    HS(1-)
 Framework group  C*V[C*(HS)]
 Deg. of freedom     1
 Full point group                 C*V     NOp   4
 Largest Abelian subgroup         C2V     NOp   4
 Largest concise Abelian subgroup C1      NOp   1
                         Standard orientation:                         
 ---------------------------------------------------------------------
 Center     Atomic      Atomic             Coordinates (Angstroms)
 Number     Number       Type             X           Y           Z
 ---------------------------------------------------------------------
      1         16           0        0.000000    0.000000    0.080024
      2          1           0        0.000000    0.000000   -1.280392
 ---------------------------------------------------------------------
 Rotational constants (GHZ):           0.0000000         279.4905366         279.4905366
 Standard basis: def2SVP (5D, 7F)
 There are    13 symmetry adapted cartesian basis functions of A1  symmetry.
 There are     1 symmetry adapted cartesian basis functions of A2  symmetry.
 There are     5 symmetry adapted cartesian basis functions of B1  symmetry.
 There are     5 symmetry adapted cartesian basis functions of B2  symmetry.
 There are    12 symmetry adapted basis functions of A1  symmetry.
 There are     1 symmetry adapted basis functions of A2  symmetry.
 There are     5 symmetry adapted basis functions of B1  symmetry.
 There are     5 symmetry adapted basis functions of B2  symmetry.
    23 basis functions,    44 primitive gaussians,    24 cartesian basis functions
     9 alpha electrons        9 beta electrons
       nuclear repulsion energy         6.2237105229 Hartrees.
 NAtoms=    2 NActive=    2 NUniq=    2 SFac= 1.00D+00 NAtFMM=   60 NAOKFM=F Big=F
 Integral buffers will be    131072 words long.
 Raffenetti 1 integral format.
 Two-electron integral symmetry is turned on.
 One-electron integrals computed using PRISM.
   4 Symmetry operations used in ECPInt.
 ECPInt:  NShTT=      66 NPrTT=     302 LenC2=      67 LenP2D=     294.
 LDataN:  DoStor=T MaxTD1= 4 Len=   56
 NBasis=    23 RedAO= T EigKep=  5.31D-02  NBF=    12     1     5     5
 NBsUse=    23 1.00D-06 EigRej= -1.00D+00 NBFU=    12     1     5     5
 ExpMin= 1.22D-01 ExpMax= 9.18D+03 ExpMxC= 1.38D+03 IAcc=3 IRadAn=         5 AccDes= 0.00D+00
 Harris functional with IExCor=  205 and IRadAn=       5 diagonalized for initial guess.
 HarFok:  IExCor=  205 AccDes= 0.00D+00 IRadAn=         5 IDoV= 1 UseB2=F ITyADJ=14
 ICtDFT=  3500011 ScaDFX=  1.000000  1.000000  1.000000  1.000000
 FoFCou: FMM=F IPFlag=           0 FMFlag=      100000 FMFlg1=           0
         NFxFlg=           0 DoJE=T BraDBF=F KetDBF=T FulRan=T
         wScrn=  0.000000 ICntrl=       500 IOpCl=  0 I1Cent=   200000004 NGrid=           0
         NMat0=    1 NMatS0=      1 NMatT0=    0 NMatD0=    1 NMtDS0=    0 NMtDT0=    0
 Petite list used in FoFCou.
 Initial guess orbital symmetries:
       Occupied  (SG) (SG) (SG) (PI) (PI) (SG) (SG) (PI) (PI)
       Virtual   (SG) (SG) (SG) (PI) (PI) (DLTA) (DLTA) (PI) (PI)
                 (SG) (SG) (PI) (PI) (SG)
 The electronic state of the initial guess is 1-SG.
 Keep R1 ints in memory in symmetry-blocked form, NReq=4974489.
 Requested convergence on RMS density matrix=1.00D-08 within  32 cycles.
 Requested convergence on MAX density matrix=1.00D-06.
 Requested convergence on             energy=1.00D-06.
 No special actions if energy rises.
 SCF Done:  E(RHF) =  -397.968679356     A.U. after    9 cycles
            NFock=  9  Conv=0.69D-08     -V/T= 1.9998
 QCSCF skips out because SCF is already converged.
 ExpMin= 1.22D-01 ExpMax= 9.18D+03 ExpMxC= 1.38D+03 IAcc=3 IRadAn=         5 AccDes= 0.00D+00
 HarFok:  IExCor=  205 AccDes= 0.00D+00 IRadAn=         5 IDoV=-2 UseB2=F ITyADJ=14
 ICtDFT= 12500011 ScaDFX=  1.000000  1.000000  1.000000  1.000000
 Range of M.O.s used for correlation:     6    23
 NBasis=    23 NAE=     9 NBE=     9 NFC=     5 NFV=     0
 NROrb=     18 NOA=     4 NOB=     4 NVA=    14 NVB=    14
 Fully direct method using O(ONN) memory.
 JobTyp=1 Pass  1:  I=   6 to   9 NPSUse=  8 ParTrn=T ParDer=T DoDerP=T.
 Spin components of T(2) and E(2):
     alpha-alpha T2 =       0.6000036348D-02 E2=     -0.1526867489D-01
     alpha-beta  T2 =       0.3958480671D-01 E2=     -0.1012348003D+00
     beta-beta   T2 =       0.6000036348D-02 E2=     -0.1526867489D-01
 ANorm=    0.1025468127D+01
 E2 =    -0.1317721501D+00 EUMP2 =    -0.39810045150559D+03
          IDoAtm=11
          Differentiating once with respect to electric field.
                with respect to dipole field.
          Differentiating once with respect to nuclear coordinates.
 Keep R1 ints in memory in symmetry-blocked form, NReq=4974915.
          There are     1 degrees of freedom in the 1st order CPHF.  IDoFFX=0 NUNeed=     1.
 LinEq1:  Iter=  0 NonCon=     1 RMS=4.95D-03 Max=2.90D-02 NDo=     1
 AX will form     1 AO Fock derivatives at one time.
 LinEq1:  Iter=  1 NonCon=     1 RMS=1.27D-03 Max=5.85D-03 NDo=     1
 LinEq1:  Iter=  2 NonCon=     1 RMS=2.06D-04 Max=1.39D-03 NDo=     1
 LinEq1:  Iter=  3 NonCon=     1 RMS=2.59D-05 Max=1.44D-04 NDo=     1
 LinEq1:  Iter=  4 NonCon=     1 RMS=6.96D-06 Max=4.43D-05 NDo=     1
 LinEq1:  Iter=  5 NonCon=     1 RMS=7.05D-07 Max=2.86D-06 NDo=     1
 LinEq1:  Iter=  6 NonCon=     1 RMS=6.54D-08 Max=4.10D-07 NDo=     1
 LinEq1:  Iter=  7 NonCon=     1 RMS=5.56D-09 Max=2.35D-08 NDo=     1
 LinEq1:  Iter=  8 NonCon=     1 RMS=3.68D-10 Max=1.78D-09 NDo=     1
 LinEq1:  Iter=  9 NonCon=     0 RMS=2.18D-11 Max=9.90D-11 NDo=     1
 Linear equations converged to 1.000D-10 1.000D-09 after     9 iterations.
 End of Minotr F.D. properties file   721 does not exist.
 End of Minotr F.D. properties file   722 does not exist.
 End of Minotr F.D. properties file   788 does not exist.

 **********************************************************************

            Population analysis using the SCF density.

 **********************************************************************

 Orbital symmetries:
       Occupied  (SG) (SG) (SG) (PI) (PI) (SG) (SG) (PI) (PI)
       Virtual   (SG) (SG) (SG) (PI) (PI) (PI) (PI) (DLTA) (DLTA)
                 (SG) (SG) (PI) (PI) (SG)
 The electronic state is 1-SG.
 Alpha  occ. eigenvalues --  -91.55612  -8.58778  -6.27746  -6.27392  -6.27392
 Alpha  occ. eigenvalues --   -0.58448  -0.20096  -0.04560  -0.04560
 Alpha virt. eigenvalues --    0.44002   0.79533   0.88101   1.20685   1.20685
 Alpha virt. eigenvalues --    1.26508   1.26508   1.27771   1.27771   1.30240
 Alpha virt. eigenvalues --    1.60499   2.12620   2.12620   2.78778
          Condensed to atoms (all electrons):
               1          2
     1  S   16.681028   0.203173
     2  H    0.203173   0.912626
 Mulliken charges:
               1
     1  S   -0.884201
     2  H   -0.115799
 Sum of Mulliken charges =  -1.00000
 Mulliken charges with hydrogens summed into heavy atoms:
               1
     1  S   -1.000000
 Electronic spatial extent (au):  <R**2>=             44.4948
 Charge=             -1.0000 electrons
 Dipole moment (field-independent basis, Debye):
    X=              0.0000    Y=              0.0000    Z=             -0.5642  Tot=              0.5642
 Quadrupole moment (field-independent basis, Debye-Ang):
   XX=            -17.9259   YY=            -17.9259   ZZ=            -15.6288
   XY=              0.0000   XZ=              0.0000   YZ=              0.0000
 Traceless Quadrupole moment (field-independent basis, Debye-Ang):
   XX=             -0.7657   YY=             -0.7657   ZZ=              1.5314
   XY=              0.0000   XZ=              0.0000   YZ=              0.0000
 Octapole moment (field-independent basis, Debye-Ang**2):
  XXX=              0.0000  YYY=              0.0000  ZZZ=              1.0273  XYY=              0.0000
  XXY=              0.0000  XXZ=             -0.2386  XZZ=              0.0000  YZZ=              0.0000
  YYZ=             -0.2386  XYZ=              0.0000
 Hexadecapole moment (field-independent basis, Debye-Ang**3):
 XXXX=            -23.7261 YYYY=            -23.7261 ZZZZ=            -30.1316 XXXY=              0.0000
 XXXZ=              0.0000 YYYX=              0.0000 YYYZ=              0.0000 ZZZX=              0.0000
 ZZZY=              0.0000 XXYY=             -7.9087 XXZZ=             -9.0836 YYZZ=             -9.0836
 XXYZ=              0.0000 YYXZ=              0.0000 ZZXY=              0.0000
 N-N= 6.223710522899D+00 E-N=-9.667443367020D+02  KE= 3.980512346597D+02
 Symmetry A1   KE= 3.214964512583D+02
 Symmetry A2   KE=-3.783561739932D-51
 Symmetry B1   KE= 3.827739170071D+01
 Symmetry B2   KE= 3.827739170071D+01
   4 Symmetry operations used in ECPInt.
 ECPInt:  NShTT=      66 NPrTT=     302 LenC2=      67 LenP2D=     294.
 LDataN:  DoStor=T MaxTD1= 5 Len=  102
 Calling FoFJK, ICntrl=  10002127 FMM=F ISym2X=1 I1Cent= 0 IOpClX= 0 NMat=1 NMatS=1 NMatT=0.
 ***** Axes restored to original set *****
 -------------------------------------------------------------------
 Center     Atomic                   Forces (Hartrees/Bohr)
 Number     Number              X              Y              Z
 -------------------------------------------------------------------
      1       16           0.005409885   -0.000000000   -0.000000000
      2        1          -0.005409885   -0.000000000   -0.000000000
 -------------------------------------------------------------------
 Cartesian Forces:  Max     0.005409885 RMS     0.003123399

 GradGradGradGradGradGradGradGradGradGradGradGradGradGradGradGradGradGrad
 Berny optimization.
 FormGI is forming the generalized inverse of G from B-inverse, IUseBI=4.
 Internal  Forces:  Max     0.005409885 RMS     0.005409885
 Search for a local minimum.
 Step number   1 out of a maximum of   20
 All quantities printed in internal units (Hartrees-Bohrs-Radians)
 Mixed Optimization -- RFO/linear search
 Second derivative matrix not updated -- first step.
 The second derivative matrix:
                          R1
           R1           0.24854
 ITU=  0
     Eigenvalues ---    0.24854
 RFO step:  Lambda=-1.17699971D-04 EMin= 2.48538735D-01
 Linear search not attempted -- first point.
 Iteration  1 RMS(Cart)=  0.01538414 RMS(Int)=  0.00000000
 Iteration  2 RMS(Cart)=  0.00000000 RMS(Int)=  0.00000000
 ClnCor:  largest displacement from symmetrization is 0.00D+00 for atom     0.
 Variable       Old X    -DE/DX   Delta X   Delta X   Delta X     New X
                                 (Linear)    (Quad)   (Total)
    R1        2.57081  -0.00541   0.00000  -0.02176  -0.02176   2.54906
         Item               Value     Threshold  Converged?
 Maximum Force            0.005410     0.000450     NO 
 RMS     Force            0.005410     0.000300     NO 
 Maximum Displacement     0.010878     0.001800     NO 
 RMS     Displacement     0.015384     0.001200     NO 
 Predicted change in Energy=-5.887784D-05
 GradGradGradGradGradGradGradGradGradGradGradGradGradGradGradGradGradGrad

                          Input orientation:                          
 ---------------------------------------------------------------------
 Center     Atomic      Atomic             Coordinates (Angstroms)
 Number     Number       Type             X           Y           Z
 ---------------------------------------------------------------------
      1         16           0       -3.471276    0.304950    0.000000
      2          1           0       -2.122374    0.304950    0.000000
 ---------------------------------------------------------------------
 Stoichiometry    HS(1-)
 Framework group  C*V[C*(HS)]
 Deg. of freedom     1
 Full point group                 C*V     NOp   4
 Largest Abelian subgroup         C2V     NOp   4
 Largest concise Abelian subgroup C1      NOp   1
                         Standard orientation:                         
 ---------------------------------------------------------------------
 Center     Atomic      Atomic             Coordinates (Angstroms)
 Number     Number       Type             X           Y           Z
 ---------------------------------------------------------------------
      1         16           0        0.000000    0.000000    0.079347
      2          1           0        0.000000    0.000000   -1.269556
 ---------------------------------------------------------------------
 Rotational constants (GHZ):           0.0000000         284.2818578         284.2818578
 Standard basis: def2SVP (5D, 7F)
 There are    13 symmetry adapted cartesian basis functions of A1  symmetry.
 There are     1 symmetry adapted cartesian basis functions of A2  symmetry.
 There are     5 symmetry adapted cartesian basis functions of B1  symmetry.
 There are     5 symmetry adapted cartesian basis functions of B2  symmetry.
 There are    12 symmetry adapted basis functions of A1  symmetry.
 There are     1 symmetry adapted basis functions of A2  symmetry.
 There are     5 symmetry adapted basis functions of B1  symmetry.
 There are     5 symmetry adapted basis functions of B2  symmetry.
    23 basis functions,    44 primitive gaussians,    24 cartesian basis functions
     9 alpha electrons        9 beta electrons
       nuclear repulsion energy         6.2768305308 Hartrees.
 NAtoms=    2 NActive=    2 NUniq=    2 SFac= 1.00D+00 NAtFMM=   60 NAOKFM=F Big=F
 Integral buffers will be    131072 words long.
 Raffenetti 1 integral format.
 Two-electron integral symmetry is turned on.
 One-electron integrals computed using PRISM.
   4 Symmetry operations used in ECPInt.
 ECPInt:  NShTT=      66 NPrTT=     302 LenC2=      67 LenP2D=     294.
 LDataN:  DoStor=T MaxTD1= 4 Len=   56
 NBasis=    23 RedAO= T EigKep=  5.23D-02  NBF=    12     1     5     5
 NBsUse=    23 1.00D-06 EigRej= -1.00D+00 NBFU=    12     1     5     5
 Initial guess from the checkpoint file:  "sh_gas_afdd.chk"
 B after Tr=     0.000000    0.000000   -0.000000
         Rot=    1.000000    0.000000    0.000000    0.000000 Ang=   0.00 deg.
 Initial guess orbital symmetries:
       Occupied  (SG) (SG) (SG) (PI) (PI) (SG) (SG) (PI) (PI)
       Virtual   (SG) (SG) (SG) (PI) (PI) (PI) (PI) (DLTA) (DLTA)
                 (SG) (SG) (PI) (PI) (SG)
 Keep R1 ints in memory in symmetry-blocked form, NReq=4974489.
 Requested convergence on RMS density matrix=1.00D-08 within  32 cycles.
 Requested convergence on MAX density matrix=1.00D-06.
 Requested convergence on             energy=1.00D-06.
 No special actions if energy rises.
 SCF Done:  E(RHF) =  -397.968732288     A.U. after    8 cycles
            NFock=  8  Conv=0.46D-08     -V/T= 1.9998
 QCSCF skips out because SCF is already converged.
 ExpMin= 1.22D-01 ExpMax= 9.18D+03 ExpMxC= 1.38D+03 IAcc=3 IRadAn=         5 AccDes= 0.00D+00
 HarFok:  IExCor=  205 AccDes= 0.00D+00 IRadAn=         5 IDoV=-2 UseB2=F ITyADJ=14
 ICtDFT= 12500011 ScaDFX=  1.000000  1.000000  1.000000  1.000000
 Range of M.O.s used for correlation:     6    23
 NBasis=    23 NAE=     9 NBE=     9 NFC=     5 NFV=     0
 NROrb=     18 NOA=     4 NOB=     4 NVA=    14 NVB=    14
 Fully direct method using O(ONN) memory.
 JobTyp=1 Pass  1:  I=   6 to   9 NPSUse=  8 ParTrn=T ParDer=T DoDerP=T.
 Spin components of T(2) and E(2):
     alpha-alpha T2 =       0.6005193163D-02 E2=     -0.1529964520D-01
     alpha-beta  T2 =       0.3944060611D-01 E2=     -0.1011761499D+00
     beta-beta   T2 =       0.6005193163D-02 E2=     -0.1529964520D-01
 ANorm=    0.1025402844D+01
 E2 =    -0.1317754403D+00 EUMP2 =    -0.39810050772883D+03
          IDoAtm=11
          Differentiating once with respect to electric field.
                with respect to dipole field.
          Differentiating once with respect to nuclear coordinates.
 Keep R1 ints in memory in symmetry-blocked form, NReq=4974915.
          There are     1 degrees of freedom in the 1st order CPHF.  IDoFFX=0 NUNeed=     1.
 LinEq1:  Iter=  0 NonCon=     1 RMS=4.92D-03 Max=2.85D-02 NDo=     1
 AX will form     1 AO Fock derivatives at one time.
 LinEq1:  Iter=  1 NonCon=     1 RMS=1.26D-03 Max=5.93D-03 NDo=     1
 LinEq1:  Iter=  2 NonCon=     1 RMS=2.03D-04 Max=1.37D-03 NDo=     1
 LinEq1:  Iter=  3 NonCon=     1 RMS=2.52D-05 Max=1.40D-04 NDo=     1
 LinEq1:  Iter=  4 NonCon=     1 RMS=6.77D-06 Max=4.34D-05 NDo=     1
 LinEq1:  Iter=  5 NonCon=     1 RMS=6.99D-07 Max=2.80D-06 NDo=     1
 LinEq1:  Iter=  6 NonCon=     1 RMS=6.53D-08 Max=4.13D-07 NDo=     1
 LinEq1:  Iter=  7 NonCon=     1 RMS=5.54D-09 Max=2.34D-08 NDo=     1
 LinEq1:  Iter=  8 NonCon=     1 RMS=3.64D-10 Max=1.78D-09 NDo=     1
 LinEq1:  Iter=  9 NonCon=     0 RMS=2.14D-11 Max=9.83D-11 NDo=     1
 Linear equations converged to 1.000D-10 1.000D-09 after     9 iterations.
 End of Minotr F.D. properties file   721 does not exist.
 End of Minotr F.D. properties file   722 does not exist.
 End of Minotr F.D. properties file   788 does not exist.
   4 Symmetry operations used in ECPInt.
 ECPInt:  NShTT=      66 NPrTT=     302 LenC2=      67 LenP2D=     294.
 LDataN:  DoStor=T MaxTD1= 5 Len=  102
 Calling FoFJK, ICntrl=  10002127 FMM=F ISym2X=1 I1Cent= 0 IOpClX= 0 NMat=1 NMatS=1 NMatT=0.
 ***** Axes restored to original set *****
 -------------------------------------------------------------------
 Center     Atomic                   Forces (Hartrees/Bohr)
 Number     Number              X              Y              Z
 -------------------------------------------------------------------
      1       16          -0.000300593   -0.000000000   -0.000000000
      2        1           0.000300593   -0.000000000   -0.000000000
 -------------------------------------------------------------------
 Cartesian Forces:  Max     0.000300593 RMS     0.000173548

 GradGradGradGradGradGradGradGradGradGradGradGradGradGradGradGradGradGrad
 Berny optimization.
 Using GEDIIS/GDIIS optimizer.
 Internal  Forces:  Max     0.000300593 RMS     0.000300593
 Search for a local minimum.
 Step number   2 out of a maximum of   20
 All quantities printed in internal units (Hartrees-Bohrs-Radians)
 Mixed Optimization -- En-DIIS/RFO-DIIS
 Update second derivatives using D2CorX and points    1    2
 DE= -5.62D-05 DEPred=-5.89D-05 R= 9.55D-01
 TightC=F SS=  1.41D+00  RLast= 2.18D-02 DXNew= 5.0454D-01 6.5269D-02
 Trust test= 9.55D-01 RLast= 2.18D-02 DXMaxT set to 3.00D-01
 The second derivative matrix:
                          R1
           R1           0.26247
 ITU=  1  0
 Use linear search instead of GDIIS.
     Eigenvalues ---    0.26247
 RFO step:  Lambda= 0.00000000D+00 EMin= 2.62472708D-01
 Quartic linear search produced a step of -0.05113.
 Iteration  1 RMS(Cart)=  0.00078652 RMS(Int)=  0.00000000
 Iteration  2 RMS(Cart)=  0.00000000 RMS(Int)=  0.00000000
 ClnCor:  largest displacement from symmetrization is 0.00D+00 for atom     0.
 Variable       Old X    -DE/DX   Delta X   Delta X   Delta X     New X
                                 (Linear)    (Quad)   (Total)
    R1        2.54906   0.00030   0.00111   0.00000   0.00111   2.55017
         Item               Value     Threshold  Converged?
 Maximum Force            0.000301     0.000450     YES
 RMS     Force            0.000301     0.000300     NO 
 Maximum Displacement     0.000556     0.001800     YES
 RMS     Displacement     0.000787     0.001200     YES
 Predicted change in Energy=-1.719828D-07
 GradGradGradGradGradGradGradGradGradGradGradGradGradGradGradGradGradGrad

                          Input orientation:                          
 ---------------------------------------------------------------------
 Center     Atomic      Atomic             Coordinates (Angstroms)
 Number     Number       Type             X           Y           Z
 ---------------------------------------------------------------------
      1         16           0       -3.471571    0.304950    0.000000
      2          1           0       -2.122079    0.304950    0.000000
 ---------------------------------------------------------------------
 Stoichiometry    HS(1-)
 Framework group  C*V[C*(HS)]
 Deg. of freedom     1
 Full point group                 C*V     NOp   4
 Largest Abelian subgroup         C2V     NOp   4
 Largest concise Abelian subgroup C1      NOp   1
                         Standard orientation:                         
 ---------------------------------------------------------------------
 Center     Atomic      Atomic             Coordinates (Angstroms)
 Number     Number       Type             X           Y           Z
 ---------------------------------------------------------------------
      1         16           0        0.000000    0.000000    0.079382
      2          1           0        0.000000    0.000000   -1.270110
 ---------------------------------------------------------------------
 Rotational constants (GHZ):           0.0000000         284.0339230         284.0339230
 Standard basis: def2SVP (5D, 7F)
 There are    13 symmetry adapted cartesian basis functions of A1  symmetry.
 There are     1 symmetry adapted cartesian basis functions of A2  symmetry.
 There are     5 symmetry adapted cartesian basis functions of B1  symmetry.
 There are     5 symmetry adapted cartesian basis functions of B2  symmetry.
 There are    12 symmetry adapted basis functions of A1  symmetry.
 There are     1 symmetry adapted basis functions of A2  symmetry.
 There are     5 symmetry adapted basis functions of B1  symmetry.
 There are     5 symmetry adapted basis functions of B2  symmetry.
    23 basis functions,    44 primitive gaussians,    24 cartesian basis functions
     9 alpha electrons        9 beta electrons
       nuclear repulsion energy         6.2740927827 Hartrees.
 NAtoms=    2 NActive=    2 NUniq=    2 SFac= 1.00D+00 NAtFMM=   60 NAOKFM=F Big=F
 Integral buffers will be    131072 words long.
 Raffenetti 1 integral format.
 Two-electron integral symmetry is turned on.
 One-electron integrals computed using PRISM.
   4 Symmetry operations used in ECPInt.
 ECPInt:  NShTT=      66 NPrTT=     302 LenC2=      67 LenP2D=     294.
 LDataN:  DoStor=T MaxTD1= 4 Len=   56
 NBasis=    23 RedAO= T EigKep=  5.24D-02  NBF=    12     1     5     5
 NBsUse=    23 1.00D-06 EigRej= -1.00D+00 NBFU=    12     1     5     5
 Initial guess from the checkpoint file:  "sh_gas_afdd.chk"
 B after Tr=     0.000000    0.000000    0.000000
         Rot=    1.000000    0.000000    0.000000    0.000000 Ang=   0.00 deg.
 Initial guess orbital symmetries:
       Occupied  (SG) (SG) (SG) (PI) (PI) (SG) (SG) (PI) (PI)
       Virtual   (SG) (SG) (SG) (PI) (PI) (PI) (PI) (DLTA) (DLTA)
                 (SG) (SG) (PI) (PI) (SG)
 Keep R1 ints in memory in symmetry-blocked form, NReq=4974489.
 Requested convergence on RMS density matrix=1.00D-08 within  32 cycles.
 Requested convergence on MAX density matrix=1.00D-06.
 Requested convergence on             energy=1.00D-06.
 No special actions if energy rises.
 SCF Done:  E(RHF) =  -397.968732626     A.U. after    7 cycles
            NFock=  7  Conv=0.26D-08     -V/T= 1.9998
 QCSCF skips out because SCF is already converged.
 ExpMin= 1.22D-01 ExpMax= 9.18D+03 ExpMxC= 1.38D+03 IAcc=3 IRadAn=         5 AccDes= 0.00D+00
 HarFok:  IExCor=  205 AccDes= 0.00D+00 IRadAn=         5 IDoV=-2 UseB2=F ITyADJ=14
 ICtDFT= 12500011 ScaDFX=  1.000000  1.000000  1.000000  1.000000
 Range of M.O.s used for correlation:     6    23
 NBasis=    23 NAE=     9 NBE=     9 NFC=     5 NFV=     0
 NROrb=     18 NOA=     4 NOB=     4 NVA=    14 NVB=    14
 Fully direct method using O(ONN) memory.
 JobTyp=1 Pass  1:  I=   6 to   9 NPSUse=  8 ParTrn=T ParDer=T DoDerP=T.
 Spin components of T(2) and E(2):
     alpha-alpha T2 =       0.6004935592D-02 E2=     -0.1529807187D-01
     alpha-beta  T2 =       0.3944791623D-01 E2=     -0.1011791261D+00
     beta-beta   T2 =       0.6004935592D-02 E2=     -0.1529807187D-01
 ANorm=    0.1025406157D+01
 E2 =    -0.1317752699D+00 EUMP2 =    -0.39810050789607D+03
          IDoAtm=11
          Differentiating once with respect to electric field.
                with respect to dipole field.
          Differentiating once with respect to nuclear coordinates.
 Keep R1 ints in memory in symmetry-blocked form, NReq=4974915.
          There are     1 degrees of freedom in the 1st order CPHF.  IDoFFX=0 NUNeed=     1.
 LinEq1:  Iter=  0 NonCon=     1 RMS=4.92D-03 Max=2.85D-02 NDo=     1
 AX will form     1 AO Fock derivatives at one time.
 LinEq1:  Iter=  1 NonCon=     1 RMS=1.26D-03 Max=5.93D-03 NDo=     1
 LinEq1:  Iter=  2 NonCon=     1 RMS=2.03D-04 Max=1.37D-03 NDo=     1
 LinEq1:  Iter=  3 NonCon=     1 RMS=2.52D-05 Max=1.40D-04 NDo=     1
 LinEq1:  Iter=  4 NonCon=     1 RMS=6.78D-06 Max=4.35D-05 NDo=     1
 LinEq1:  Iter=  5 NonCon=     1 RMS=6.99D-07 Max=2.80D-06 NDo=     1
 LinEq1:  Iter=  6 NonCon=     1 RMS=6.53D-08 Max=4.13D-07 NDo=     1
 LinEq1:  Iter=  7 NonCon=     1 RMS=5.54D-09 Max=2.34D-08 NDo=     1
 LinEq1:  Iter=  8 NonCon=     1 RMS=3.64D-10 Max=1.78D-09 NDo=     1
 LinEq1:  Iter=  9 NonCon=     0 RMS=2.14D-11 Max=9.82D-11 NDo=     1
 Linear equations converged to 1.000D-10 1.000D-09 after     9 iterations.
 End of Minotr F.D. properties file   721 does not exist.
 End of Minotr F.D. properties file   722 does not exist.
 End of Minotr F.D. properties file   788 does not exist.
   4 Symmetry operations used in ECPInt.
 ECPInt:  NShTT=      66 NPrTT=     302 LenC2=      67 LenP2D=     294.
 LDataN:  DoStor=T MaxTD1= 5 Len=  102
 Calling FoFJK, ICntrl=  10002127 FMM=F ISym2X=1 I1Cent= 0 IOpClX= 0 NMat=1 NMatS=1 NMatT=0.
 ***** Axes restored to original set *****
 -------------------------------------------------------------------
 Center     Atomic                   Forces (Hartrees/Bohr)
 Number     Number              X              Y              Z
 -------------------------------------------------------------------
      1       16           0.000000029   -0.000000000   -0.000000000
      2        1          -0.000000029   -0.000000000   -0.000000000
 -------------------------------------------------------------------
 Cartesian Forces:  Max     0.000000029 RMS     0.000000017

 GradGradGradGradGradGradGradGradGradGradGradGradGradGradGradGradGradGrad
 Berny optimization.
 Using GEDIIS/GDIIS optimizer.
 Internal  Forces:  Max     0.000000029 RMS     0.000000029
 Search for a local minimum.
 Step number   3 out of a maximum of   20
 All quantities printed in internal units (Hartrees-Bohrs-Radians)
 Mixed Optimization -- En-DIIS/RFO-DIIS
 Swapping is turned off.
 Update second derivatives using D2CorX and points    3
 DE= -1.67D-07 DEPred=-1.72D-07 R= 9.72D-01
 Trust test= 9.72D-01 RLast= 1.11D-03 DXMaxT set to 3.00D-01
 The second derivative matrix:
                          R1
           R1           0.26247
 ITU=  0  1
     Eigenvalues ---    0.26247
 En-DIIS/RFO-DIIS/Sim-DIIS IScMMF=       -3 using points:     3    2
 RFO step:  Lambda=-3.13638004D-15.
 DidBck=F Rises=F RFO-DIIS coefs:    0.99990    0.00010
 Iteration  1 RMS(Cart)=  0.00000007 RMS(Int)=  0.00000000
 ClnCor:  largest displacement from symmetrization is 0.00D+00 for atom     0.
 Variable       Old X    -DE/DX   Delta X   Delta X   Delta X     New X
                                 (Linear)    (Quad)   (Total)
    R1        2.55017  -0.00000  -0.00000   0.00000  -0.00000   2.55017
         Item               Value     Threshold  Converged?
 Maximum Force            0.000000     0.000450     YES
 RMS     Force            0.000000     0.000300     YES
 Maximum Displacement     0.000000     0.001800     YES
 RMS     Displacement     0.000000     0.001200     YES
 Predicted change in Energy=-1.558671D-15
 Optimization completed.
    -- Stationary point found.
                           ----------------------------
                           !   Optimized Parameters   !
                           ! (Angstroms and Degrees)  !
 --------------------------                            --------------------------
 ! Name  Definition              Value          Derivative Info.                !
 --------------------------------------------------------------------------------
 ! R1    R(1,2)                  1.3495         -DE/DX =    0.0                 !
 --------------------------------------------------------------------------------
 GradGradGradGradGradGradGradGradGradGradGradGradGradGradGradGradGradGrad

                          Input orientation:                          
 ---------------------------------------------------------------------
 Center     Atomic      Atomic             Coordinates (Angstroms)
 Number     Number       Type             X           Y           Z
 ---------------------------------------------------------------------
      1         16           0       -3.471571    0.304950    0.000000
      2          1           0       -2.122079    0.304950    0.000000
 ---------------------------------------------------------------------
 Stoichiometry    HS(1-)
 Framework group  C*V[C*(HS)]
 Deg. of freedom     1
 Full point group                 C*V     NOp   4
 Largest Abelian subgroup         C2V     NOp   4
 Largest concise Abelian subgroup C1      NOp   1
                         Standard orientation:                         
 ---------------------------------------------------------------------
 Center     Atomic      Atomic             Coordinates (Angstroms)
 Number     Number       Type             X           Y           Z
 ---------------------------------------------------------------------
      1         16           0        0.000000    0.000000    0.079382
      2          1           0        0.000000    0.000000   -1.270110
 ---------------------------------------------------------------------
 Rotational constants (GHZ):           0.0000000         284.0339230         284.0339230

 **********************************************************************

            Population analysis using the SCF density.

 **********************************************************************

 Orbital symmetries:
       Occupied  (SG) (SG) (SG) (PI) (PI) (SG) (SG) (PI) (PI)
       Virtual   (SG) (SG) (SG) (PI) (PI) (PI) (PI) (DLTA) (DLTA)
                 (SG) (SG) (PI) (PI) (SG)
 The electronic state is 1-SG.
 Alpha  occ. eigenvalues --  -91.55490  -8.58679  -6.27650  -6.27293  -6.27293
 Alpha  occ. eigenvalues --   -0.58603  -0.20183  -0.04528  -0.04528
 Alpha virt. eigenvalues --    0.44193   0.79444   0.88221   1.20641   1.20641
 Alpha virt. eigenvalues --    1.26560   1.26560   1.27815   1.27815   1.30600
 Alpha virt. eigenvalues --    1.61199   2.13179   2.13179   2.80401
          Condensed to atoms (all electrons):
               1          2
     1  S   16.682286   0.203636
     2  H    0.203636   0.910443
 Mulliken charges:
               1
     1  S   -0.885922
     2  H   -0.114078
 Sum of Mulliken charges =  -1.00000
 Mulliken charges with hydrogens summed into heavy atoms:
               1
     1  S   -1.000000
 Electronic spatial extent (au):  <R**2>=             44.3528
 Charge=             -1.0000 electrons
 Dipole moment (field-independent basis, Debye):
    X=              0.0000    Y=              0.0000    Z=             -0.5907  Tot=              0.5907
 Quadrupole moment (field-independent basis, Debye-Ang):
   XX=            -17.9120   YY=            -17.9120   ZZ=            -15.5993
   XY=              0.0000   XZ=              0.0000   YZ=              0.0000
 Traceless Quadrupole moment (field-independent basis, Debye-Ang):
   XX=             -0.7709   YY=             -0.7709   ZZ=              1.5419
   XY=              0.0000   XZ=              0.0000   YZ=              0.0000
 Octapole moment (field-independent basis, Debye-Ang**2):
  XXX=              0.0000  YYY=              0.0000  ZZZ=              0.9141  XYY=              0.0000
  XXY=              0.0000  XXZ=             -0.2668  XZZ=              0.0000  YZZ=              0.0000
  YYZ=             -0.2668  XYZ=              0.0000
 Hexadecapole moment (field-independent basis, Debye-Ang**3):
 XXXX=            -23.7025 YYYY=            -23.7025 ZZZZ=            -29.7747 XXXY=              0.0000
 XXXZ=              0.0000 YYYX=              0.0000 YYYZ=              0.0000 ZZZX=              0.0000
 ZZZY=              0.0000 XXYY=             -7.9008 XXZZ=             -9.0206 YYZZ=             -9.0206
 XXYZ=              0.0000 YYXZ=              0.0000 ZZXY=              0.0000
 N-N= 6.274092782721D+00 E-N=-9.668648476477D+02  KE= 3.980641515785D+02
 Symmetry A1   KE= 3.215128429688D+02
 Symmetry A2   KE=-3.783561739932D-51
 Symmetry B1   KE= 3.827565430482D+01
 Symmetry B2   KE= 3.827565430482D+01

 Test job not archived.
 1\1\GINC-GRANADO-COMPUTE-16\FOpt\RMP2-FC\def2SVP\H1S1(1-)\ROOT\13-Aug-
 2023\0\\#Opt Freq mp2/Def2svp int=UltraFine scf=xqc Test\\Optimization
  sh-solvation\\-1,1\S,-3.4715707894,0.30495,0.\H,-2.1220792106,0.30495
 ,0.\\Version=EM64L-G16RevA.03\State=1-SG\HF=-397.9687326\MP2=-398.1005
 079\RMSD=2.600e-09\RMSF=1.652e-08\Dipole=0.218397,0.,0.\PG=C*V [C*(H1S
 1)]\\@


 I DO NOT DEFINE TIME, SPACE, PLACE, AND MOTION, AS BEING WELL KNOWN TO ALL.
                                            -- NEWTON (1642-1726), PRINCIPIA
 Job cpu time:       0 days  0 hours 25 minutes 11.2 seconds.
 Elapsed time:       0 days  0 hours 34 minutes 36.9 seconds.
 File lengths (MBytes):  RWF=      6 Int=      0 D2E=      0 Chk=      2 Scr=      1
 Normal termination of Gaussian 16 at Sun Aug 13 18:07:30 2023.
 Link1:  Proceeding to internal job step number  2.
 ----------------------------------------------------------------------
 #N Geom=AllCheck Guess=TCheck SCRF=Check Test GenChk RMP2(FC)/def2SVP 
 Freq
 ----------------------------------------------------------------------
 1/10=4,29=7,30=1,38=1,40=1/1,3;
 2/12=2,40=1/2;
 3/5=43,7=101,11=1,14=-4,25=1,30=1,70=2,71=2,75=-5,116=1,140=1/1,2,3;
 4/5=101/1;
 5/5=2,8=3,13=1,38=6,98=1/2,8;
 8/6=3,8=1,10=1,19=11,30=-1/1;
 9/15=3,16=-3/6;
 11/6=1,8=1,15=11,17=12,24=-1,27=1,28=-2,29=300,32=6,42=3/1,2,10;
 10/6=2,21=1/2;
 8/6=4,8=1,10=1,19=11,30=-1/11,4;
 10/5=1,20=4/2;
 11/12=2,14=11,16=1,17=2,28=-2,42=3/2,10,12;
 6/7=2,8=2,9= Structure from the checkpoint file:  "sh_gas_afdd.chk"
 --------------- Structure from the checkpoint file:  "sh_gas_afdd.chk"
 -------------------------
 Optimization sh-solvation
 -------------------------
 Charge = -1 Multiplicity = 1
 Redundant internal coordinates found in file.  (old form).
 S,0,-3.4715707894,0.30495,0.
 H,0,-2.1220792106,0.30495,0.
 Recover connectivity data from disk.

 GradGradGradGradGradGradGradGradGradGradGradGradGradGradGradGradGradGrad
 Berny optimization.
 Initialization pass.
                           ----------------------------
                           !    Initial Parameters    !
                           ! (Angstroms and Degrees)  !
 --------------------------                            --------------------------
 ! Name  Definition              Value          Derivative Info.                !
 --------------------------------------------------------------------------------
 ! R1    R(1,2)                  1.3495         calculate D2E/DX2 analytically  !
 --------------------------------------------------------------------------------
 Trust Radius=3.00D-01 FncErr=1.00D-07 GrdErr=1.00D-07 EigMax=2.50D+02 EigMin=1.00D-04
 Number of steps in this run=      2 maximum allowed number of steps=      2.
 GradGradGradGradGradGradGradGradGradGradGradGradGradGradGradGradGradGrad

                          Input orientation:                          
 ---------------------------------------------------------------------
 Center     Atomic      Atomic             Coordinates (Angstroms)
 Number     Number       Type             X           Y           Z
 ---------------------------------------------------------------------
      1         16           0       -3.471571    0.304950    0.000000
      2          1           0       -2.122079    0.304950    0.000000
 ---------------------------------------------------------------------
 Stoichiometry    HS(1-)
 Framework group  C*V[C*(HS)]
 Deg. of freedom     1
 Full point group                 C*V     NOp   4
 Largest Abelian subgroup         C2V     NOp   4
 Largest concise Abelian subgroup C1      NOp   1
                         Standard orientation:                         
 ---------------------------------------------------------------------
 Center     Atomic      Atomic             Coordinates (Angstroms)
 Number     Number       Type             X           Y           Z
 ---------------------------------------------------------------------
      1         16           0        0.000000    0.000000    0.079382
      2          1           0        0.000000    0.000000   -1.270110
 ---------------------------------------------------------------------
 Rotational constants (GHZ):           0.0000000    There are    13 symmetry adapted cart Standard basis: def2SVP (5D, 7F)
 There are    13 symmetry adapted cartesian basis functions of A1  symmetry.
 There are     1 symmetry adapted cartesian basis functions of A2  symmetry.
 There are     5 symmetry adapted cartesian basis functions of B1  symmetry.
 There are     5 symmetry adapted cartesian basis functions of B2  symmetry.
 There are    12 symmetry adapted basis functions of A1  symmetry.
 There are     1 symmetry adapted basis functions of A2  symmetry.
 There are     5 symmetry adapted basis functions of B1  symmetry.
 There are     5 symmetry adapted basis functions of B2  symmetry.
    23 basis functions,    44 primitive gaussians,    24 cartesian basis functions
     9 alpha electrons        9 beta electrons
       nuclear repulsion energy         6.2740927827 Hartrees.
 NAtoms=    2 NActive=    2 NUniq=    2 SFac= 1.00D+00 NAtFMM=   60 NAOKFM=F Big=F
 Integral buffers will be    131072 words long.
 Raffenetti 1 integral format.
 Two-electron integr   4 Symmetry operations used in ECPInt.
 ECPInt:  NShTT=      66 NPrTT=   4 Symmetry operations used in ECPInt.
 ECPInt:  NShTT=      66 NPrTT=     302 NBasis=    23 RedAO= T EigKep=  5.24D-02  NBF=    12     1     5     5
 NBasis=    23 RedAO= T EigKep=  5.24D-02  NBF=    12     1     5     5
 Initial guess from the checkpoint file:  "sh_gas_afdd.chk"
 B after Tr= Initial guess from the checkpoint file:  "sh_gas_afdd.chk"
 B after Tr=     0.000000    0.000000    0.000000
      I Initial guess orbital symmetries:
       Occupied  (SG) (SG) (SG) (PI)  Initial guess orbital symmetries:
       Occupied  (SG) (SG) (SG) (PI) (PI) (SG) (SG) (PI) (PI)
       Virtual   (SG) (SG) (SG) (PI) Keep R1 ints in memory in symmetry-blocked form, NReq=4974489 R Requested convergence on RMS density matrix=1.00D-08 within  32 cycles. Requested convergence on RMS density matrix=1.00D-08 within  32 cycles.
 Requested convergence on MAX density matrix=1.00D-06.
 Requested convergen SCF Done:  E(RHF) =  -397.968732626     A.U. after    1 cycles
         SCF Done:  E(RHF) =  -397.968732626     A.U. after    1 cycles
            NFock=  1  Conv=0.17D ExpMin= 1.22D-01 Exp QCSCF skips out because SCF is already converged.
 ExpMin= 1.22D-01 ExpMax= 9.18D+03 ExpMxC= 1.38D+03 IAcc=3 IRadAn=         5 AccDes= 0.00D+00
 HarFok:  IExCor=  205 AccDes= 0.00D+00 IRadAn=         5 IDoV=-2 UseB2=F ITyA Range of M.O.s used for correlation:     6    23
 NBasis=    23 NAE=    Range of M.O.s used for correlation:     6    23
 NBasis=    23 NAE=     9 NBE=     9 NFC=     5 NFV=     0
 NROrb=     18 NOA=     4 NOB=     4 NVA=    14 NVB=    14
 Disk-based method using ON**2 memory for  4 occupieds at a time.
 Permanent disk used for amplitudes=       19152 words.
 Estimated scratch disk usage=      841183 words.
 Actual    scratch disk usage=      841183 words.
 GetIJB would need an additional   152531155 words of memory to use all  24 processors.
 JobTyp=1 Pass  1:  I=   6 to   9 NPSUse=  S Spin components of T(2) and E(2):
     alpha-alpha T2 =       0.6004935 Spin components of T(2) and E(2):
     alpha-alpha T2 =       0.6004935585D-02 E2=     -0.1529807185D-01
     alpha-beta  T2 =       0.3944791620D-01 E2=     -0.1011791261D+00
     beta-beta   T2 =       0.6004935585D-02 E2=     -0.1529807185D-01
 ANorm=    0.1     4 Symmetry operations used in ECPInt.
 ECPInt:  NShTT=      66 NPrTT=   4 Symmetry operations used in ECPInt.
 ECPInt:  NShTT=      66 NPrTT=     3 G G2DrvN: will do     3 centers at a time, making    1 passes.
 Calling F G2DrvN: will do     3 centers at a time, making    1 p E End of G2Drv F.D. properties file   721 does not exist.
 End of G2Drv F End of G2Drv F.D. properties file   721 does not exist.
 End of G2Drv F.D. properties file   722 does not exist.
 End of G2Drv F.D. properties file   788 does not exist.
          IDoAtm=11
          Differentiating once with respect to electric field.
                with respect to dipole field.
          Differentiating once with respect to nuclear coo            There are     9 degrees of freedom in the 1st order CPHF.  IDo          There are     9 degrees of freedom in the 1st order CPHF.  IDoFFX=6 NUNeed=     9.
      6 vectors produced by pass  0 Test12= 1.40D-15 1.11D-08 XBig12=       6 vectors produced by pass  1 Test12= 1.40D-15 1.11D-08 XBig12= 1.      6 vectors p      6 vectors produced by pass  2 Test12= 1.40D-15 1.11D-08 XBig12= 2.      6 vectors p      6 vectors produced by pass  3 Test12= 1.40D-15 1.11D-08 XBig12= 2.      6 vectors p      6 vectors produced by pass  4 Test12= 1.40D-15 1.11D-08 XBig12= 2.      6 vectors p      6 vectors produced by pass  5 Test12= 1.40D-15 1.11D-08 XBig12= 1.      6 vectors p      4 vectors produced by pass  6 Test12= 1.40D-15 1.11D-08 XBig12= 2.      4 vectors p      1 vectors produced by pass  7 Test12= 1.40D-15 1.11D-08 XBig12= 8.      1 vectors I InvSVY:  IOpt=1 It=  1 EMax= 2.22D-16
 Solved reduced A of dimension    InvSVY:  IOpt=1 It=   E End of Minotr F.D. properties file   721 does not exist.
 End of Minotr End of Minotr F.D. properties file   721 does not exist.
 End of Minotr F.D. properties file   722 does not exist.
 End of Minotr F.D. properties file   788 does not exist.
 MDV=   104857600.
 Form MO integral derivatives with frozen-active canonical formalism.
 Discarding MO integrals.
 Reordered first order wavefunction length =        31752
 In DefCFB: NBatch=  1 ICI=  9 ICA= 14 LFMax= 14 Semi-Direct transformation.
 ModeAB=           2 MOrb=             9 Le Semi-Direct transformation.
 ModeAB=           2 MOrb=             9 LenV=     104676161
 LASXX=        35820 LTotXX=       35820 LenRXX=       35820
 LTotAB=       41526 MaxLAS=       62100 LenRXY=       62100
 NonZer=       71640 LenScr=      785920 LnRSAI=           0
 LnScr1=           0 LExtra=           0 Total=       883840
 MaxDsk=          -1 SrtSym=           F ITran=            4
 Job S Spin components of T(2) and E(2):
     alpha-alpha T2 =       0.6004935 Spin components of T(2) and E(2):
     alpha-alpha T2 =       0.6004935585D-02 E2=     -0.1529807185D-01
     alpha-beta  T2 =       0.3944791620D-01 E2=     -0.1011791261D+00
     beta-beta   T2 =       0.6004935585D-02 E2=     -0.1529807185D-01
 ANorm=    0.145          IDoAtm=11
          Differentiating once with respect to elect          IDoAtm=11
          Differentiating once with respect to electric field.
                with respect to dipole fie          There are     1 degrees of freedom in the 1st order CPHF.  IDo          There are L LinEq1:  Iter=  0 NonCon=     1 RMS=4.92D-03 Max=2.85D-02 NDo=     1
 L LinEq1:  Iter=  0 NonCon=     1 RMS=4.92D-03 Max=2.85D-02 NDo=      L LinEq1:  Iter=  1 NonCon=     1 RMS=1.26D-03 Max=5.93D-03 NDo=      L LinEq1:  Iter=  2 NonCon=     1 RMS=2.03D-04 Max=1.37D-03 NDo=      L LinEq1:  Iter=  3 NonCon=     1 RMS=2.52D-05 Max=1.40D-04 NDo=      L LinEq1:  Iter=  4 NonCon=     1 RMS=6.78D-06 Max=4.35D-05 NDo=      L LinEq1:  Iter=  5 NonCon=     1 RMS=6.99D-07 Max=2.80D-06 NDo=      L LinEq1:  Iter=  6 NonCon=     1 RMS=6.53D-08 Max=4.13D-07 NDo=      L LinEq1:  Iter=  7 NonCon=     1 RMS=5.54D-09 Max=2.34D-08 NDo=      L LinEq1:  Iter=  8 NonCon=     1 RMS=3.64D-10 Max=1.78D-09 NDo=     1
 LinEq1:  Iter=  9 NonCon=     0 RMS=2.14D-11 Max=9.82D-11 NDo=     1
  E End of Minotr F.D. properties file   721 does not exist.
 End of Minotr F.D. properties file   722 does not exist.
 End of Minotr F.D. properties file   788 does not exist.
 Symmetrizing basis deriv contribution to polar:
 IMax=3 JMax=2 DiffMx=  Symmetri G2DrvN: will do     3 centers at a time, making    1 passes.
 Calling FoFCou, ICntrl=  3107 FMM=F I1Cent=   0 AccDes= 0.00D+00 E End of G2Drv F.D. properties file   721 does not exist.
 End of G2Drv F.D. properties file   722 does not exist.
 End of G2Drv F.D. properties file   788 does not exist R R2 and R3 integrals will be kept in memory, NReq=      910300.
 DD1Dir will call FoFMem   1 times, MxPair=        90
 NAB=    45 NAA=   DD1Dir will ca D Discarding MO integrals.

 ******************************************** Discarding MO integrals.

 **********************************************************************

            Population analysis using the SCF density.

 **********************************************************************

 Orbital symmetries:
       Occupied  (SG) (SG) (SG) (PI) (PI) (SG) (SG) (PI) (PI)
       Virtual   (SG) (SG) (SG) (PI) (PI) (PI) (PI) (DLTA) (DLTA)
                 (SG) (SG) (PI) (PI) (SG)
 The electronic state is 1-SG.
 Alpha  occ. eigenvalues --  -91.55490  -8.58679  -6.27650  -6.27293  -6.27293
 Alpha  occ. eigenvalues --   -0.58603  -0.20183  -0.04528  -0.04528
 Alpha virt. eigenvalues --    0.44193   0.79444   0.88221   1.20641   1.20641
 Alpha virt. eigenvalues --    1.26560   1.26560   1.27815   1.27815   1.30600
 Alpha virt. eigenvalues --    1.61199   2.13179   2.13179   2.80401
          Condensed to atoms (all electrons):
               1          2
     1  S   16.682286   0.203636
     2  H    0.203636   0.910443
 Mulliken charges:
               1
     1  S   -0.885922
     2  H   -0.114078
 Sum of Mulliken charges =  -1.00000
 Mulliken charges with hydrogens summed into heavy atoms:
               1
     1  S   -1.000000
 APT charges:
               1
     1  S   -0.844863
     2  H   -0.155137
 Sum of APT charges =  -1.00000
 APT charges with hydrogens summed into heavy atoms:
               1
     1  S   -1.000000
 Electronic spatial extent (au):  <R**2>=             44.3528
 Charge=             -1.0000 electrons
 Dipole moment (field-independent basis, Debye):
    X=              0.0000    Y=              0.0000    Z=             -0.5907  Tot=              0.5907
 Quadrupole moment (field-independent basis, Debye-Ang):
   XX=            -17.9120   YY=            -17.9120   ZZ=            -15.5993
   XY=              0.0000   XZ=              0.0000   YZ=              0.0000
 Traceless Quadrupole moment (field-independent basis, Debye-Ang):
   XX=             -0.7709   YY=             -0.7709   ZZ=              1.5419
   XY=              0.0000   XZ=              0.0000   YZ=              0.0000
 Octapole moment (field-independent basis, Debye-Ang**2):
  XXX=              0.0000  YYY=              0.0000  ZZZ=              0.9141  XYY=              0.0000
  XXY=              0.0000  XXZ=             -0.2668  XZZ=              0.0000  YZZ=              0.0000
  YYZ=             -0.2668  XYZ=              0.0000
 Hexadecapole moment (field-independent basis, Debye-Ang**3):
 XXXX=            -23.7025 YYYY=            -23.7025 ZZZZ=            -29.7747 XXXY=              0.0000
 XXXZ=              0.0000 YYYX=              0.0000 YYYZ=              0.0000 ZZZX=              0.0000
 ZZZY=              0.0000 XXYY=             -7.9008 XXZZ=             -9.0206 YYZZ=             -9.0206
 XXYZ=              0.0000 YYXZ=              0.0000 ZZXY=              0.0000
 N-N= 6.274092782721D+00 E-N=-9.6686484 Symmetry A2   KE= 0.000000000000D Sym Symmetry B1   KE= 3.827565430332D Sym Symmetry B2   KE= 3.827565430332D Sym  Exact polarizability:   9.344    Symmetry B2   KE= 3.827565430332D+01
  Exact polarizability:   9.344   0.000   9.344   0.000   0.000  20.25     4 Symmetry operations used in ECPInt.
 ECPInt:  NShTT=      66 NPrTT=   4 Symmetry operations used in ECPInt.
 ECPInt:  NShTT=      66 NPrTT=     302 Calling FoFJK, ICntrl=  10100127 FMM=F ISym2X=1 I1Cent= 0 IOpClX= 0 NMa Calling FoFJK, ICntr Full mass-weighted force constant matrix:
 Low frequencies ---    0.004 Full mass-weighted force constant matrix:
 Low freq Diagonal vibrational polarizability:
        0.0000000       0.0000000  Diagonal vibrational polarizability:
        0.0000000       0.0000000       0.8779445
 Harmonic frequencies (cm**-1), IR intensities (KM/Mole), Raman scattering
 activities (A**4/AMU), depolarization ratios for plane and unpolarized
 incident light, reduced masses (AMU), force constants (mDyne/A),
 and normal coordinates:
                      1
                     SG
 Frequencies --   2701.5092
 Red. masses --      1.0386
 Frc consts  --      4.4658
 IR Inten    --    238.0931
  Atom  AN      X      Y      Z
     1  16    -0.00  -0.00  -0.03
     2   1    -0.00  -0.00   1.00

 -------------------
 - Thermochemistry -
 -------------------
 Temperature   298.150 Kelvin.  Pressure   1.00000 Atm.
 Atom     1 has atomic number 16 and mass  31.97207
 Atom     2 has atomic number  1 and mass   1.00783
 Molecular mass:    32.97990 amu.
 Principal axes and moments of inertia in atomic units:
                           1         2         3
     Eigenvalues --     0.00000   6.35396   6.35396
           X            0.00000  -0.00000   1.00000
           Y            0.00000   1.00000   0.00000
           Z            1.00000   0.00000   0.00000
 This molecule is a prolate symmetric top.
 Rotational symmetry number  1.
 Rotational temperature (Kelvin)     13.63148
 Rotational constant (GHZ):         284.033923
 Zero-point vibrational energy      16158.6 (Joules/Mol)
                                    3.86200 (Kcal/Mol)
 Vibrational temperatures:   3886.87
          (Kelvin)
 
 Zero-point correction=                           0.006154 (Hartree/Particle)
 Thermal correction to Energy=                    0.008515
 Thermal correction to Enthalpy=                  0.009459
 Thermal correction to Gibbs Free Energy=        -0.011698
 Sum of electronic and zero-point Energies=           -398.094353
 Sum of electronic and thermal Energies=              -398.091993
 Sum of electronic and thermal Enthalpies=            -398.091049
 Sum of electronic and thermal Free Energies=         -398.112206
 
                     E (Thermal)             CV                S
                      KCal/Mol        Cal/Mol-Kelvin    Cal/Mol-Kelvin
 Total                    5.343              4.969             44.530
 Electronic               0.000              0.000              0.000
 Translational            0.889              2.981             36.411
 Rotational               0.592              1.987              8.118
 Vibrational              3.862              0.001              0.000
                       Q            Log10(Q)             Ln(Q)
 Total Bot       0.240355D+06          5.380854         12.389874
 Total V=0       0.162825D+09          8.211721         18.908185
 Vib (Bot)       0.147616D-02         -2.830866         -6.518309
 Vib (V=0)       0.100000D+01          0.000001          0.000002
 Electronic      0.100000D+01          0.000000          0.000000
 Translational   0.744437D+07          6.871828         15.822968
 Rotational      0.218722D+02          1.339892          3.085215
 ***** Axes restored to original set *****
 -------------------------------------------------------------------
 Center     Atomic                   Forces (Hartrees/Bohr)
 Number     Number              X              Y              Z
 -------------------------------------------------------------------
      1       16           0.000000029   -0.000000000   -0.000000000
      2        1          -0.000000029   -0.000000000   -0.000000000
 -------------------------------------------------------------------
 Cartesian Forces:  Max     0.000000029 RMS     0.000000017
 FormGI is forming the generalized inverse of G from B-inverse, IUseBI=4.

 GradGradGradGradGradGradGradGradGradGradGradGradGradGradGradGradGradGrad
 Berny optimization.
 Internal  Forces:  Max     0.000000029 RMS     0.000000029
 Search for a local minimum.
 Step number   1 out of a maximum of    2
 All quantities printed in internal units (Hartrees-Bohrs-Radians)
 Second derivative matrix not updated -- analytic derivatives used.
 The second derivative matrix:
                          R1
           R1           0.26984
 ITU=  0
     Eigenvalues ---    0.26984
 Angle between quadratic step and forces=  90.00 degrees.
 Linear search not attempted -- first point.
 Iteration  1 RMS(Cart)=  0.00000008 RMS(Int)=  0.00000000
 ClnCor:  largest displacement from symmetrization is 0.00D+00 for atom     0.
 Variable       Old X    -DE/DX   Delta X   Delta X   Delta X     New X
                                 (Linear)    (Quad)   (Total)
    R1        2.55017  -0.00000   0.00000  -0.00000  -0.00000   2.55017
         Item               Value     Threshold  Converged?
 Maximum Force            0.000000     0.000450     YES
 RMS     Force            0.000000     0.000300     YES
 Maximum Displacement     0.000000     0.001800     YES
 RMS     Displacement     0.000000     0.001200     YES
 Predicted change in Energy=-1.542791D-15
 Optimization completed.
    -- Stationary point found.
                           ----------------------------
                           !   Optimized Parameters   !
                           ! (Angstroms and Degrees)  !
 --------------------------                            --------------------------
 ! Name  Definition              Value          Derivative Info.                !
 --------------------------------------------------------------------------------
 ! R1    R(1,2)                  1.3495         -DE/DX =    0.0                 !
 --------------------------------------------------------------------------------
 GradGradGradGradGradGradGradGradGradGradGradGradGradGradGradGradGradGrad


 ----------------------------------------------------------------------

 Electric dipole moment (input orientation):
 (Debye = 10**-18 statcoulomb cm , SI units = C m)
                  (au)            (Debye)         (10**-30 SI)
   Tot        0.218397D+00      0.555110D+00      0.185165D+01
   x          0.218397D+00      0.555110D+00      0.185165D+01
   y          0.000000D+00      0.000000D+00      0.000000D+00
   z          0.000000D+00      0.000000D+00      0.000000D+00

 Dipole polarizability, Alpha (input orientation).
 (esu units = cm**3 , SI units = C**2 m**2 J**-1)
 Alpha(0;0):
               (au)            (10**-24 esu)      (10**-40 SI)
   iso        0.129795D+02      0.192336D+01      0.214003D+01
   aniso      0.109070D+02      0.161625D+01      0.179832D+01
   xx         0.202508D+02      0.300086D+01      0.333891D+01
   yx         0.000000D+00      0.000000D+00      0.000000D+00
   yy         0.934380D+01      0.138461D+01      0.154058D+01
   zx         0.000000D+00      0.000000D+00      0.000000D+00
   zy         0.000000D+00      0.000000D+00      0.000000D+00
   zz         0.934380D+01      0.138461D+01      0.154058D+01

 ----------------------------------------------------------------------

 Dipole orientation:
    16         -0.00000000          0.57627198         -6.56031801
     1         -0.00000000          0.57627198         -4.01014852

 Electric dipole moment (dipole orientation):
 (Debye = 10**-18 statcoulomb cm , SI units = C m)
                  (au)            (Debye)         (10**-30 SI)
   Tot        0.218397D+00      0.555110D+00      0.185165D+01
   x          0.000000D+00      0.000000D+00      0.000000D+00
   y          0.000000D+00      0.000000D+00      0.000000D+00
   z          0.218397D+00      0.555110D+00      0.185165D+01

 Dipole polarizability, Alpha (dipole orientation).
 (esu units = cm**3 , SI units = C**2 m**2 J**-1)
 Alpha(0;0):
               (au)            (10**-24 esu)      (10**-40 SI)
   iso        0.129795D+02      0.192336D+01      0.214003D+01
   aniso      0.109070D+02      0.161625D+01      0.179832D+01
   xx         0.934380D+01      0.138461D+01      0.154058D+01
   yx         0.000000D+00      0.000000D+00      0.000000D+00
   yy         0.934380D+01      0.138461D+01      0.154058D+01
   zx         0.000000D+00      0.000000D+00      0.000000D+00
   zy         0.000000D+00      0.000000D+00      0.000000D+00
   zz         0.202508D+02      0.300086D+01      0.333891D+01

 ----------------------------------------------------------------------

 Test job not archived.
 1\1\GINC-GRANADO-COMPUTE-16\Freq\RMP2-FC\def2SVP\H1S1(1-)\ROOT\13-Aug-
 2023\0\\#N Geom=AllCheck Guess=TCheck SCRF=Check Test GenChk RMP2(FC)/
 def2SVP Freq\\Optimization sh-solvation\\-1,1\S,-3.4715707894,0.30495,
 0.\H,-2.1220792106,0.30495,0.\\Version=EM64L-G16RevA.03\State=1-SG\HF=
 -397.9687326\MP2=-398.1005079\RMSD=1.728e-10\RMSF=1.666e-08\ZeroPoint=
 0.0061545\Thermal=0.008515\Dipole=0.218397,0.,0.\DipoleDeriv=-0.480956
 4,0.,0.,0.,-1.0268167,0.,0.,0.,-1.0268167,-0.5190436,0.,0.,0.,0.026816
 7,0.,0.,0.,0.0268167\Polar=20.2508033,0.,9.3437988,0.,0.,9.3437988\PG=
 C*V [C*(H1S1)]\NImag=0\\0.26984290,0.,0.00000002,0.,0.,0.00000002,-0.2
 6984290,0.,0.,0.26984290,0.,-0.00000002,0.,0.,0.00000002,0.,0.,-0.0000
 0002,0.,0.,0.00000002\\-0.00000003,0.,0.,0.00000003,0.,0.\\\@


 MICHAEL FARADAY, ASKED BY A POLITICIAN WHAT GOOD
 HIS ELECTRICAL DISCOVERIES WERE, REPLIED 
 "AT PRESENT I DO NOT KNOW, BUT ONE DAY YOU WILL BE
 ABLE TO TAX THEM."
 Job cpu time:       0 days  0 hours 19 minutes 10.3 seconds.
 Elapsed time:       0 days  0 hours 16 minutes  8.1 seconds.
 File lengths (MBytes):  RWF=     13 Int=      0 D2E=      0 Chk=      2 Scr=      1
 Normal termination of Gaussian 16 at Sun Aug 13 18:23:43 2023.
 termination of Gaussian 16 at Sun Aug 13 18:23:36 2023.
l termination of Gaussian 16 at Sun Aug 13 18:23:22 2023.
INIQUITY, BUT REJOICETH IN THE TRUTH,
 BEARETH ALL THINGS, BELIEVETH ALL THINGS,
 HOPETH ALL THINGS, ENDURETH ALL THINGS.
 LOVE NEVER FAILETH, BUT WHETHER THERE BE PROPHECIES, THEY SHALL FAIL, 
 WHETHER THERE BE TONGUES, THEY SHALL CEASE,
 WHETHER THERE BE KNOWLEDGE, IT SHALL VANISH AWAY.
 FOR WE KNOW IN PART, AND WE PROPHESY IN PART.
 BUT WHEN THAT WHICH IS PERFECT IS COME, THEN THAT WHICH IS IN PART 
 SHALL BE DONE AWAY. 
 WHEN I WAS A CHILD, I SPAKE AS A CHILD, I UNDERSTOOD AS A CHILD, 
 I THOUGHT AS A CHILD.
 BUT WHEN I BECAME A MAN, I PUT AWAY CHILDISH THINGS.
 FOR NOW WE SEE THROUGH A GLASS, DARKLY, BUT THEN FACE TO FACE.
 NOW I KNOW IN PART. BUT THEN SHALL I KNOW EVEN AS ALSO I AM KNOWN.
 AND NOW ABIDETH FAITH, HOPE AND LOVE, THESE THREE.
 BUT THE GREATEST OF THESE IS LOVE.

                     I CORINTHIANS 13
 Job cpu time:       0 days  0 hours 18 minutes 16.6 seconds.
 Elapsed time:       0 days  0 hours 14 minutes 50.6 seconds.
 File lengths (MBytes):  RWF=     13 Int=      0 D2E=      0 Chk=      2 Scr=      1
 Normal termination of Gaussian 16 at Sun Aug 13 18:19:01 2023.
