 Entering Gaussian System, Link 0=g16
 Input=input.gjf
 Output=input.log
 Initial command:
 /opt/ohpc/pub/apps/gaussian/G16x86_64_legacy_CPUs_linux_binary/g16/l1.exe "/tmp/Gau-25101.inp" -scrdir="/tmp/"
 Entering Link 1 = /opt/ohpc/pub/apps/gaussian/G16x86_64_legacy_CPUs_linux_binary/g16/l1.exe PID=     25151.
  
 Copyright (c) 1988,1990,1992,1993,1995,1998,2003,2009,2016,
            Gaussian, Inc.  All Rights Reserved.
  
 This is part of the Gaussian(R) 16 program.  It is based on
 the Gaussian(R) 09 system (copyright 2009, Gaussian, Inc.),
 the Gaussian(R) 03 system (copyright 2003, Gaussian, Inc.),
 the Gaussian(R) 98 system (copyright 1998, Gaussian, Inc.),
 the Gaussian(R) 94 system (copyright 1995, Gaussian, Inc.),
 the Gaussian 92(TM) system (copyright 1992, Gaussian, Inc.),
 the Gaussian 90(TM) system (copyright 1990, Gaussian, Inc.),
 the Gaussian 88(TM) system (copyright 1988, Gaussian, Inc.),
 the Gaussian 86(TM) system (copyright 1986, Carnegie Mellon
 University), and the Gaussian 82(TM) system (copyright 1983,
 Carnegie Mellon University). Gaussian is a federally registered
 trademark of Gaussian, Inc.
  
 This software contains proprietary and confidential information,
 including trade secrets, belonging to Gaussian, Inc.
  
 This software is provided under written license and may be
 used, copied, transmitted, or stored only in accord with that
 written license.
  
 The following legend is applicable only to US Government
 contracts under FAR:
  
                    RESTRICTED RIGHTS LEGEND
  
 Use, reproduction and disclosure by the US Government is
 subject to restrictions as set forth in subparagraphs (a)
 and (c) of the Commercial Computer Software - Restricted
 Rights clause in FAR 52.227-19.
  
 Gaussian, Inc.
 340 Quinnipiac St., Bldg. 40, Wallingford CT 06492
  
  
 ---------------------------------------------------------------
 Warning -- This program may not be used in any manner that
 competes with the business of Gaussian, Inc. or will provide
 assistance to any competitor of Gaussian, Inc.  The licensee
 of this program is prohibited from giving any competitor of
 Gaussian, Inc. access to this program.  By using this program,
 the user acknowledges that Gaussian, Inc. is engaged in the
 business of creating and licensing software in the field of
 computational chemistry and represents and warrants to the
 licensee that it is not a competitor of Gaussian, Inc. and that
 it will not use this program in any manner prohibited above.
 ---------------------------------------------------------------
  

 Cite this work as:
 Gaussian 16, Revision A.03,
 M. J. Frisch, G. W. Trucks, H. B. Schlegel, G. E. Scuseria, 
 M. A. Robb, J. R. Cheeseman, G. Scalmani, V. Barone, 
 G. A. Petersson, H. Nakatsuji, X. Li, M. Caricato, A. V. Marenich, 
 J. Bloino, B. G. Janesko, R. Gomperts, B. Mennucci, H. P. Hratchian, 
 J. V. Ortiz, A. F. Izmaylov, J. L. Sonnenberg, D. Williams-Young, 
 F. Ding, F. Lipparini, F. Egidi, J. Goings, B. Peng, A. Petrone, 
 T. Henderson, D. Ranasinghe, V. G. Zakrzewski, J. Gao, N. Rega, 
 G. Zheng, W. Liang, M. Hada, M. Ehara, K. Toyota, R. Fukuda, 
 J. Hasegawa, M. Ishida, T. Nakajima, Y. Honda, O. Kitao, H. Nakai, 
 T. Vreven, K. Throssell, J. A. Montgomery, Jr., J. E. Peralta, 
 F. Ogliaro, M. J. Bearpark, J. J. Heyd, E. N. Brothers, K. N. Kudin, 
 V. N. Staroverov, T. A. Keith, R. Kobayashi, J. Normand, 
 K. Raghavachari, A. P. Rendell, J. C. Burant, S. S. Iyengar, 
 J. Tomasi, M. Cossi, J. M. Millam, M. Klene, C. Adamo, R. Cammi, 
 J. W. Ochterski, R. L. Martin, K. Morokuma, O. Farkas, 
 J. B. Foresman, and D. J. Fox, Gaussian, Inc., Wallingford CT, 2016.
 
 ******************************************
 Gaussian 16:  EM64L-G16RevA.03 25-Dec-2016
                12-Aug-2023 
 ******************************************
 %NProcShared=24
 Will use up to   24 processors via shared memory.
 %Chk=ch3hgcl_gas_mp2.chk
 ------------------------------------------------
 #Opt Freq mp2/Def2SVP int=UltraFine scf=xqc test
 ------------------------------------------------
 1/18=20,19=15,38=1/1,3;
 2/9=110,12=2,17=6,18=5,40=1/2;
 3/5=43,7=101,11=9,25=1,30=1,71=1,75=-5/1,2,3;
 4//1;
 5/5=2,8=3,13=1,38=5/2,8;
 8/6=4,10=1/1;
 9/15=2,16=-3/6;
 10/5=1/2;
 6/7=2,8=2,9=2,10=2/1;
 7/12=2/1,2,3,16;
 1/18=20,19=15/3(2);
 2/9=110/2;
 99//99;
 2/9=110/2;
 3/5=43,7=101,11=9,25=1,30=1,71=1,75=-5/1,2,3;
 4/5=5,16=3,69=1/1;
 5/5=2,8=3,13=1,38=5/2,8;
 8/6=4,10=1/1;
 9/15=2,16=-3/6;
 10/5=1/2;
 7/12=2/1,2,3,16;
 1/18=20,19=15/3(-8);
 2/9=110/2;
 6/7=2,8=2,9=2,10=2/1;
 99//99;
 ------------------------------------------
 Optimization MeHgCl-apfd-def2svp-gas phase
 ------------------------------------------
 Symbolic Z-matrix:
 Charge =  0 Multiplicity = 1
 C                    -4.87226   1.58796   0.00002 
 Hg                   -3.37421   3.08412   0.00005 
 H                    -4.63754   0.85031   0.7709 
 H                    -4.89474   1.108    -0.98111 
 H                    -5.83831   2.05276   0.2102 
 Cl                   -1.69759   4.75882  -0.00006 
 

 GradGradGradGradGradGradGradGradGradGradGradGradGradGradGradGradGradGrad
 Berny optimization.
 Initialization pass.
                           ----------------------------
                           !    Initial Parameters    !
                           ! (Angstroms and Degrees)  !
 --------------------------                            --------------------------
 ! Name  Definition              Value          Derivative Info.                !
 --------------------------------------------------------------------------------
 ! R1    R(1,2)                  2.1172         estimate D2E/DX2                !
 ! R2    R(1,3)                  1.0925         estimate D2E/DX2                !
 ! R3    R(1,4)                  1.0925         estimate D2E/DX2                !
 ! R4    R(1,5)                  1.0925         estimate D2E/DX2                !
 ! R5    R(2,6)                  2.3697         estimate D2E/DX2                !
 ! A1    A(2,1,3)              108.9724         estimate D2E/DX2                !
 ! A2    A(2,1,4)              108.9678         estimate D2E/DX2                !
 ! A3    A(2,1,5)              108.9665         estimate D2E/DX2                !
 ! A4    A(3,1,4)              109.9682         estimate D2E/DX2                !
 ! A5    A(3,1,5)              109.9692         estimate D2E/DX2                !
 ! A6    A(4,1,5)              109.9691         estimate D2E/DX2                !
 ! A7    L(1,2,6,5,-1)         179.9977         estimate D2E/DX2                !
 ! A8    L(1,2,6,5,-2)         180.0102         estimate D2E/DX2                !
 ! D1    D(2,1,4,3)            119.3833         estimate D2E/DX2                !
 ! D2    D(2,1,5,3)           -119.383          estimate D2E/DX2                !
 ! D3    D(2,1,5,4)            119.3773         estimate D2E/DX2                !
 ! D4    D(3,1,5,4)           -121.2396         estimate D2E/DX2                !
 --------------------------------------------------------------------------------
 Trust Radius=3.00D-01 FncErr=1.00D-07 GrdErr=1.00D-07 EigMax=2.50D+02 EigMin=1.00D-04
 Number of steps in this run=     27 maximum allowed number of steps=    100.
 GradGradGradGradGradGradGradGradGradGradGradGradGradGradGradGradGradGrad

                          Input orientation:                          
 ---------------------------------------------------------------------
 Center     Atomic      Atomic             Coordinates (Angstroms)
 Number     Number       Type             X           Y           Z
 ---------------------------------------------------------------------
      1          6           0       -4.872260    1.587957    0.000017
      2         80           0       -3.374214    3.084122    0.000049
      3          1           0       -4.637535    0.850314    0.770897
      4          1           0       -4.894741    1.107998   -0.981111
      5          1           0       -5.838309    2.052761    0.210203
      6         17           0       -1.697590    4.758818   -0.000055
 ---------------------------------------------------------------------
                    Distance matrix (angstroms):
                    1          2          3          4          5
     1  C    0.000000
     2  Hg   2.117227   0.000000
     3  H    1.092460   2.679568   0.000000
     4  H    1.092464   2.679504   1.789438   0.000000
     5  H    1.092461   2.679484   1.789445   1.789449   0.000000
     6  Cl   4.486969   2.369741   4.951166   4.951033   4.951011
                    6
     6  Cl   0.000000
 This structure is nearly, but not quite of a higher symmetry.
 Consider Symm=Loose if the higher symmetry is desired.
 Stoichiometry    CH3ClHg
 Framework group  C1[X(CH3ClHg)]
 Deg. of freedom    12
 Full point group                 C1      NOp   1
 Largest Abelian subgroup         C1      NOp   1
 Largest concise Abelian subgroup C1      NOp   1
                         Standard orientation:                         
 ---------------------------------------------------------------------
 Center     Atomic      Atomic             Coordinates (Angstroms)
 Number     Number       Type             X           Y           Z
 ---------------------------------------------------------------------
      1          6           0        0.297142    0.748231   -2.162465
      2         80           0        0.024524    0.061696   -0.178277
      3          1           0        1.297286    1.177816   -2.255399
      4          1           0       -0.456932    1.507538   -2.382247
      5          1           0        0.188187   -0.095236   -2.848150
      6         17           0       -0.280782   -0.706777    2.042514
 ---------------------------------------------------------------------
 Rotational constants (GHZ):         156.6014562           1.9411997           1.9411995
 Standard basis: def2SVP (5D, 7F)
 There are    86 symmetry adapted cartesian basis functions of A   symmetry.
 There are    79 symmetry adapted basis functions of A   symmetry.
    79 basis functions,   148 primitive gaussians,    86 cartesian basis functions
    23 alpha electrons       23 beta electrons
       nuclear repulsion energy       144.8526790930 Hartrees.
 NAtoms=    6 NActive=    6 NUniq=    6 SFac= 1.00D+00 NAtFMM=   60 NAOKFM=F Big=F
 Integral buffers will be    131072 words long.
 Raffenetti 1 integral format.
 Two-electron integral symmetry is turned on.
 One-electron integrals computed using PRISM.
 PrsmSu:  requested number of processors reduced to:  13 ShMem   1 Linda.
   1 Symmetry operations used in ECPInt.
 ECPInt:  NShTT=     630 NPrTT=    2138 LenC2=     623 LenP2D=    1798.
 LDataN:  DoStor=T MaxTD1= 8 Len=  415
 NBasis=    79 RedAO= T EigKep=  8.79D-03  NBF=    79
 NBsUse=    79 1.00D-06 EigRej= -1.00D+00 NBFU=    79
 ExpMin= 5.64D-02 ExpMax= 1.04D+04 ExpMxC= 1.57D+03 IAcc=3 IRadAn=         5 AccDes= 0.00D+00
 Harris functional with IExCor=  205 and IRadAn=       5 diagonalized for initial guess.
 HarFok:  IExCor=  205 AccDes= 0.00D+00 IRadAn=         5 IDoV= 1 UseB2=F ITyADJ=14
 ICtDFT=  3500011 ScaDFX=  1.000000  1.000000  1.000000  1.000000
 Defaulting to unpruned grid for atomic number  80.
 FoFCou: FMM=F IPFlag=           0 FMFlag=      100000 FMFlg1=           0
         NFxFlg=           0 DoJE=T BraDBF=F KetDBF=T FulRan=T
         wScrn=  0.000000 ICntrl=       500 IOpCl=  0 I1Cent=   200000004 NGrid=           0
         NMat0=    1 NMatS0=      1 NMatT0=    0 NMatD0=    1 NMtDS0=    0 NMtDT0=    0
 Petite list used in FoFCou.
 Keep R1 ints in memory in canonical form, NReq=16713686.
 Requested convergence on RMS density matrix=1.00D-08 within  32 cycles.
 Requested convergence on MAX density matrix=1.00D-06.
 Requested convergence on             energy=1.00D-06.
 No special actions if energy rises.
 SCF Done:  E(RHF) =  -651.480004686     A.U. after   12 cycles
            NFock= 12  Conv=0.64D-08     -V/T= 2.1852
 QCSCF skips out because SCF is already converged.
 ExpMin= 5.64D-02 ExpMax= 1.04D+04 ExpMxC= 1.57D+03 IAcc=3 IRadAn=         5 AccDes= 0.00D+00
 HarFok:  IExCor=  205 AccDes= 0.00D+00 IRadAn=         5 IDoV=-2 UseB2=F ITyADJ=14
 ICtDFT= 12500011 ScaDFX=  1.000000  1.000000  1.000000  1.000000
 Defaulting to unpruned grid for atomic number  80.
 Range of M.O.s used for correlation:     7    79
 NBasis=    79 NAE=    23 NBE=    23 NFC=     6 NFV=     0
 NROrb=     73 NOA=    17 NOB=    17 NVA=    56 NVB=    56
 Disk-based method using ON**2 memory for 17 occupieds at a time.
 Estimated scratch disk usage=    21323944 words.
 Actual    scratch disk usage=    19815592 words.
 GetIJB would need an additional   279867555 words of memory to use all  24 processors.
 JobTyp=1 Pass  1:  I=   7 to  23 NPSUse=  6 ParTrn=T ParDer=T DoDerP=T.
 (rs|ai) integrals will be sorted in core.
 Spin components of T(2) and E(2):
     alpha-alpha T2 =       0.2942345561D-01 E2=     -0.1009658676D+00
     alpha-beta  T2 =       0.1391407739D+00 E2=     -0.4538836672D+00
     beta-beta   T2 =       0.2942345561D-01 E2=     -0.1009658676D+00
 ANorm=    0.1094526238D+01
 E2 =    -0.6558154023D+00 EUMP2 =    -0.65213582008810D+03
          IDoAtm=111111
          Differentiating once with respect to electric field.
                with respect to dipole field.
          Differentiating once with respect to nuclear coordinates.
 Keep R1 ints in memory in canonical form, NReq=16716423.
          There are     1 degrees of freedom in the 1st order CPHF.  IDoFFX=0 NUNeed=     1.
 LinEq1:  Iter=  0 NonCon=     1 RMS=7.49D-03 Max=1.59D-01 NDo=     1
 AX will form     1 AO Fock derivatives at one time.
 LinEq1:  Iter=  1 NonCon=     1 RMS=1.59D-03 Max=1.76D-02 NDo=     1
 LinEq1:  Iter=  2 NonCon=     1 RMS=5.76D-04 Max=7.12D-03 NDo=     1
 LinEq1:  Iter=  3 NonCon=     1 RMS=1.23D-04 Max=1.49D-03 NDo=     1
 LinEq1:  Iter=  4 NonCon=     1 RMS=3.39D-05 Max=3.89D-04 NDo=     1
 LinEq1:  Iter=  5 NonCon=     1 RMS=1.11D-05 Max=2.03D-04 NDo=     1
 LinEq1:  Iter=  6 NonCon=     1 RMS=3.04D-06 Max=3.90D-05 NDo=     1
 LinEq1:  Iter=  7 NonCon=     1 RMS=9.56D-07 Max=1.75D-05 NDo=     1
 LinEq1:  Iter=  8 NonCon=     1 RMS=2.16D-07 Max=2.07D-06 NDo=     1
 LinEq1:  Iter=  9 NonCon=     1 RMS=5.14D-08 Max=6.19D-07 NDo=     1
 LinEq1:  Iter= 10 NonCon=     1 RMS=1.09D-08 Max=1.08D-07 NDo=     1
 LinEq1:  Iter= 11 NonCon=     1 RMS=2.14D-09 Max=2.69D-08 NDo=     1
 LinEq1:  Iter= 12 NonCon=     1 RMS=2.93D-10 Max=2.27D-09 NDo=     1
 LinEq1:  Iter= 13 NonCon=     0 RMS=3.49D-11 Max=5.73D-10 NDo=     1
 Linear equations converged to 1.000D-10 1.000D-09 after    13 iterations.
 End of Minotr F.D. properties file   721 does not exist.
 End of Minotr F.D. properties file   722 does not exist.
 End of Minotr F.D. properties file   788 does not exist.

 **********************************************************************

            Population analysis using the SCF density.

 **********************************************************************

 Orbital symmetries:
       Occupied  (A) (A) (A) (A) (A) (A) (A) (A) (A) (A) (A) (A)
                 (A) (A) (A) (A) (A) (A) (A) (A) (A) (A) (A)
       Virtual   (A) (A) (A) (A) (A) (A) (A) (A) (A) (A) (A) (A)
                 (A) (A) (A) (A) (A) (A) (A) (A) (A) (A) (A) (A)
                 (A) (A) (A) (A) (A) (A) (A) (A) (A) (A) (A) (A)
                 (A) (A) (A) (A) (A) (A) (A) (A) (A) (A) (A) (A)
                 (A) (A) (A) (A) (A) (A) (A) (A)
 The electronic state is 1-A.
 Alpha  occ. eigenvalues -- -104.73602 -11.25408 -10.49667  -7.97113  -7.96906
 Alpha  occ. eigenvalues --   -7.96906  -5.11940  -3.10992  -3.10704  -3.10704
 Alpha  occ. eigenvalues --   -1.01850  -0.93655  -0.69168  -0.69168  -0.68520
 Alpha  occ. eigenvalues --   -0.67520  -0.67520  -0.56357  -0.56357  -0.46946
 Alpha  occ. eigenvalues --   -0.41010  -0.41010  -0.40040
 Alpha virt. eigenvalues --    0.08679   0.08679   0.08932   0.18048   0.25210
 Alpha virt. eigenvalues --    0.25210   0.26757   0.31718   0.57590   0.57590
 Alpha virt. eigenvalues --    0.61423   0.61423   0.66521   0.73478   0.73479
 Alpha virt. eigenvalues --    0.74100   0.84607   0.89084   0.90402   0.90402
 Alpha virt. eigenvalues --    1.02959   1.02960   1.06757   1.09791   1.09791
 Alpha virt. eigenvalues --    1.13155   1.13156   1.19333   1.24755   1.24755
 Alpha virt. eigenvalues --    1.28761   1.50980   1.50981   1.60782   1.78119
 Alpha virt. eigenvalues --    1.81873   1.81873   1.82137   1.82143   1.82497
 Alpha virt. eigenvalues --    1.82497   1.85440   2.03787   2.03788   2.23319
 Alpha virt. eigenvalues --    2.27511   2.27511   2.50654   2.68964   2.73595
 Alpha virt. eigenvalues --    2.73596   3.06151   3.25006   3.25007  33.75748
 Alpha virt. eigenvalues --  121.69426
          Condensed to atoms (all electrons):
               1          2          3          4          5          6
     1  C    4.997140   0.303546   0.380276   0.380271   0.380270  -0.006327
     2  Hg   0.303546  18.928420  -0.037507  -0.037512  -0.037514   0.225226
     3  H    0.380276  -0.037507   0.597847  -0.011197  -0.011196   0.000118
     4  H    0.380271  -0.037512  -0.011197   0.597857  -0.011196   0.000118
     5  H    0.380270  -0.037514  -0.011196  -0.011196   0.597859   0.000119
     6  Cl  -0.006327   0.225226   0.000118   0.000118   0.000119  17.245888
 Mulliken charges:
               1
     1  C   -0.435176
     2  Hg   0.655341
     3  H    0.081660
     4  H    0.081660
     5  H    0.081659
     6  Cl  -0.465143
 Sum of Mulliken charges =  -0.00000
 Mulliken charges with hydrogens summed into heavy atoms:
               1
     1  C   -0.190198
     2  Hg   0.655341
     6  Cl  -0.465143
 Electronic spatial extent (au):  <R**2>=            594.6484
 Charge=             -0.0000 electrons
 Dipole moment (field-independent basis, Debye):
    X=              0.4929    Y=              1.2405    Z=             -3.5850  Tot=              3.8254
 Quadrupole moment (field-independent basis, Debye-Ang):
   XX=            -42.3525   YY=            -43.3247   ZZ=            -51.8111
   XY=             -0.4586   XZ=              1.3252   YZ=              3.3360
 Traceless Quadrupole moment (field-independent basis, Debye-Ang):
   XX=              3.4769   YY=              2.5047   ZZ=             -5.9816
   XY=             -0.4586   XZ=              1.3252   YZ=              3.3360
 Octapole moment (field-independent basis, Debye-Ang**2):
  XXX=              3.0599  YYY=              6.7512  ZZZ=            -26.8457  XYY=              0.7262
  XXY=              2.8993  XXZ=             -6.5841  XZZ=              1.8715  YZZ=              4.5826
  YYZ=             -7.6977  XYZ=             -0.3534
 Hexadecapole moment (field-independent basis, Debye-Ang**3):
 XXXX=            -60.7180 YYYY=           -120.1914 ZZZZ=           -650.5847 XXXY=            -12.5885
 XXXZ=             38.3300 YYYX=            -14.6163 YYYZ=             99.7188 ZZZX=             43.6066
 ZZZY=            110.7827 XXYY=            -29.1603 XXZZ=           -114.4178 YYZZ=           -125.4716
 XXYZ=             31.5022 YYXZ=             14.1890 ZZXY=             -6.0564
 N-N= 1.448526790930D+02 E-N=-1.796284836735D+03  KE= 5.496807218718D+02
 PrsmSu:  requested number of processors reduced to:  13 ShMem   1 Linda.
   1 Symmetry operations used in ECPInt.
 ECPInt:  NShTT=     630 NPrTT=    2138 LenC2=     623 LenP2D=    1798.
 LDataN:  DoStor=T MaxTD1= 9 Len=  602
 Calling FoFJK, ICntrl=  10002127 FMM=F ISym2X=0 I1Cent= 0 IOpClX= 0 NMat=1 NMatS=1 NMatT=0.
 ***** Axes restored to original set *****
 -------------------------------------------------------------------
 Center     Atomic                   Forces (Hartrees/Bohr)
 Number     Number              X              Y              Z
 -------------------------------------------------------------------
      1        6           0.013021832    0.013005432   -0.000002386
      2       80          -0.001018895   -0.001016024   -0.000002367
      3        1           0.001631193   -0.001366481    0.002376870
      4        1           0.000835926   -0.000572733   -0.003021454
      5        1          -0.002071561    0.002335266    0.000647465
      6       17          -0.012398494   -0.012385461    0.000001872
 -------------------------------------------------------------------
 Cartesian Forces:  Max     0.013021832 RMS     0.006139126

 GradGradGradGradGradGradGradGradGradGradGradGradGradGradGradGradGradGrad
 Berny optimization.
 FormGI is forming the generalized inverse of G from B-inverse, IUseBI=4.
 Internal  Forces:  Max     0.018963811 RMS     0.006401594
 Search for a local minimum.
 Step number   1 out of a maximum of   27
 All quantities printed in internal units (Hartrees-Bohrs-Radians)
 Mixed Optimization -- RFO/linear search
 Second derivative matrix not updated -- first step.
 The second derivative matrix:
                          R1        R2        R3        R4        R5
           R1           0.14592
           R2           0.00000   0.34530
           R3           0.00000   0.00000   0.34529
           R4           0.00000   0.00000   0.00000   0.34530
           R5           0.00000   0.00000   0.00000   0.00000   0.17214
           A1           0.00000   0.00000   0.00000   0.00000   0.00000
           A2           0.00000   0.00000   0.00000   0.00000   0.00000
           A3           0.00000   0.00000   0.00000   0.00000   0.00000
           A4           0.00000   0.00000   0.00000   0.00000   0.00000
           A5           0.00000   0.00000   0.00000   0.00000   0.00000
           A6           0.00000   0.00000   0.00000   0.00000   0.00000
           A7           0.00000   0.00000   0.00000   0.00000   0.00000
           A8           0.00000   0.00000   0.00000   0.00000   0.00000
           D1           0.00000   0.00000   0.00000   0.00000   0.00000
           D2           0.00000   0.00000   0.00000   0.00000   0.00000
           D3           0.00000   0.00000   0.00000   0.00000   0.00000
           D4           0.00000   0.00000   0.00000   0.00000   0.00000
                          A1        A2        A3        A4        A5
           A1           0.16000
           A2           0.00000   0.16000
           A3           0.00000   0.00000   0.16000
           A4           0.00000   0.00000   0.00000   0.16000
           A5           0.00000   0.00000   0.00000   0.00000   0.16000
           A6           0.00000   0.00000   0.00000   0.00000   0.00000
           A7           0.00000   0.00000   0.00000   0.00000   0.00000
           A8           0.00000   0.00000   0.00000   0.00000   0.00000
           D1           0.00000   0.00000   0.00000   0.00000   0.00000
           D2           0.00000   0.00000   0.00000   0.00000   0.00000
           D3           0.00000   0.00000   0.00000   0.00000   0.00000
           D4           0.00000   0.00000   0.00000   0.00000   0.00000
                          A6        A7        A8        D1        D2
           A6           0.16000
           A7           0.00000   0.00230
           A8           0.00000   0.00000   0.00230
           D1           0.00000   0.00000   0.00000   0.00230
           D2           0.00000   0.00000   0.00000   0.00000   0.00230
           D3           0.00000   0.00000   0.00000   0.00000   0.00000
           D4           0.00000   0.00000   0.00000   0.00000   0.00000
                          D3        D4
           D3           0.00230
           D4           0.00000   0.00230
 ITU=  0
     Eigenvalues ---    0.00230   0.00230   0.05051   0.05656   0.08734
     Eigenvalues ---    0.14592   0.16000   0.16000   0.17214   0.34529
     Eigenvalues ---    0.34530   0.34530
 RFO step:  Lambda=-4.26441574D-03 EMin= 2.30000000D-03
 Linear search not attempted -- first point.
 Iteration  1 RMS(Cart)=  0.05471713 RMS(Int)=  0.00004612
 Iteration  2 RMS(Cart)=  0.00002548 RMS(Int)=  0.00003798
 Iteration  3 RMS(Cart)=  0.00000000 RMS(Int)=  0.00003798
 Variable       Old X    -DE/DX   Delta X   Delta X   Delta X     New X
                                 (Linear)    (Quad)   (Total)
    R1        4.00098  -0.01896   0.00000  -0.12627  -0.12627   3.87471
    R2        2.06445   0.00295   0.00000   0.00844   0.00844   2.07289
    R3        2.06446   0.00295   0.00000   0.00843   0.00843   2.07289
    R4        2.06445   0.00295   0.00000   0.00844   0.00844   2.07289
    R5        4.47816  -0.01752   0.00000  -0.09934  -0.09934   4.37882
    A1        1.90193  -0.00027   0.00000  -0.00705  -0.00702   1.89491
    A2        1.90185  -0.00043   0.00000  -0.00722  -0.00719   1.89465
    A3        1.90182  -0.00083   0.00000  -0.00742  -0.00742   1.89440
    A4        1.91931   0.00010   0.00000   0.00682   0.00672   1.92603
    A5        1.91932   0.00066   0.00000   0.00723   0.00717   1.92649
    A6        1.91932   0.00074   0.00000   0.00723   0.00717   1.92650
    A7        3.14155   0.00000   0.00000   0.00043   0.00043   3.14198
    A8        3.14177  -0.00000   0.00000  -0.00033  -0.00033   3.14144
    D1        2.08363  -0.00053   0.00000  -0.00892  -0.00895   2.07468
    D2       -2.08363   0.00045   0.00000   0.00881   0.00883  -2.07480
    D3        2.08353  -0.00058   0.00000  -0.00901  -0.00904   2.07448
    D4       -2.11603  -0.00103   0.00000  -0.01782  -0.01788  -2.13391
         Item               Value     Threshold  Converged?
 Maximum Force            0.018964     0.000450     NO 
 RMS     Force            0.006402     0.000300     NO 
 Maximum Displacement     0.122280     0.001800     NO 
 RMS     Displacement     0.054724     0.001200     NO 
 Predicted change in Energy=-2.189841D-03
 GradGradGradGradGradGradGradGradGradGradGradGradGradGradGradGradGradGrad

                          Input orientation:                          
 ---------------------------------------------------------------------
 Center     Atomic      Atomic             Coordinates (Angstroms)
 Number     Number       Type             X           Y           Z
 ---------------------------------------------------------------------
      1          6           0       -4.852450    1.607767    0.000046
      2         80           0       -3.401953    3.056984    0.000020
      3          1           0       -4.610218    0.871077    0.775842
      4          1           0       -4.869031    1.130470   -0.987457
      5          1           0       -5.818893    2.081561    0.211602
      6         17           0       -1.762105    4.694110   -0.000052
 ---------------------------------------------------------------------
                    Distance matrix (angstroms):
                    1          2          3          4          5
     1  C    0.000000
     2  Hg   2.050408   0.000000
     3  H    1.096926   2.615338   0.000000
     4  H    1.096927   2.615126   1.800970   0.000000
     5  H    1.096927   2.614921   1.801259   1.801264   0.000000
     6  Cl   4.367579   2.317172   4.830046   4.829854   4.829880
                    6
     6  Cl   0.000000
 Stoichiometry    CH3ClHg
 Framework group  C1[X(CH3ClHg)]
 Deg. of freedom    12
 Full point group                 C1      NOp   1
 Largest Abelian subgroup         C1      NOp   1
 Largest concise Abelian subgroup C1      NOp   1
                         Standard orientation:                         
 ---------------------------------------------------------------------
 Center     Atomic      Atomic             Coordinates (Angstroms)
 Number     Number       Type             X           Y           Z
 ---------------------------------------------------------------------
      1          6           0        2.238059    0.000409    0.000073
      2         80           0        0.187651   -0.000097   -0.000014
      3          1           0        2.587232    0.513969    0.904276
      4          1           0        2.587036    0.527057   -0.896647
      5          1           0        2.587123   -1.039469   -0.007517
      6         17           0       -2.129520    0.000223    0.000034
 ---------------------------------------------------------------------
 Rotational constants (GHZ):         154.5697402           2.0406594           2.0406535
 Standard basis: def2SVP (5D, 7F)
 There are    86 symmetry adapted cartesian basis functions of A   symmetry.
 There are    79 symmetry adapted basis functions of A   symmetry.
    79 basis functions,   148 primitive gaussians,    86 cartesian basis functions
    23 alpha electrons       23 beta electrons
       nuclear repulsion energy       148.2686362679 Hartrees.
 NAtoms=    6 NActive=    6 NUniq=    6 SFac= 1.00D+00 NAtFMM=   60 NAOKFM=F Big=F
 Integral buffers will be    131072 words long.
 Raffenetti 1 integral format.
 Two-electron integral symmetry is turned on.
 One-electron integrals computed using PRISM.
 PrsmSu:  requested number of processors reduced to:  13 ShMem   1 Linda.
   1 Symmetry operations used in ECPInt.
 ECPInt:  NShTT=     630 NPrTT=    2138 LenC2=     623 LenP2D=    1806.
 LDataN:  DoStor=T MaxTD1= 8 Len=  415
 NBasis=    79 RedAO= T EigKep=  8.38D-03  NBF=    79
 NBsUse=    79 1.00D-06 EigRej= -1.00D+00 NBFU=    79
 Initial guess from the checkpoint file:  "ch3hgcl_gas_mp2.chk"
 B after Tr=     0.000000   -0.000000   -0.000000
         Rot=    1.000000    0.000000    0.000000   -0.000000 Ang=   0.00 deg.
 ExpMin= 5.64D-02 ExpMax= 1.04D+04 ExpMxC= 1.57D+03 IAcc=2 IRadAn=         4 AccDes= 0.00D+00
 Harris functional with IExCor=  205 and IRadAn=       4 diagonalized for initial guess.
 HarFok:  IExCor=  205 AccDes= 0.00D+00 IRadAn=         4 IDoV= 1 UseB2=F ITyADJ=14
 ICtDFT=  3500011 ScaDFX=  1.000000  1.000000  1.000000  1.000000
 Defaulting to unpruned grid for atomic number  80.
 FoFCou: FMM=F IPFlag=           0 FMFlag=      100000 FMFlg1=           0
         NFxFlg=           0 DoJE=T BraDBF=F KetDBF=T FulRan=T
         wScrn=  0.000000 ICntrl=       500 IOpCl=  0 I1Cent=   200000004 NGrid=           0
         NMat0=    1 NMatS0=      1 NMatT0=    0 NMatD0=    1 NMtDS0=    0 NMtDT0=    0
 Petite list used in FoFCou.
 Keep R1 ints in memory in canonical form, NReq=16714752.
 Requested convergence on RMS density matrix=1.00D-08 within  32 cycles.
 Requested convergence on MAX density matrix=1.00D-06.
 Requested convergence on             energy=1.00D-06.
 No special actions if energy rises.
 SCF Done:  E(RHF) =  -651.478729437     A.U. after    1 cycles
            NFock=  1  Conv=0.38D-09     -V/T= 2.1850
 QCSCF skips out because SCF is already converged.
 ExpMin= 5.64D-02 ExpMax= 1.04D+04 ExpMxC= 1.57D+03 IAcc=3 IRadAn=         5 AccDes= 0.00D+00
 HarFok:  IExCor=  205 AccDes= 0.00D+00 IRadAn=         5 IDoV=-2 UseB2=F ITyADJ=14
 ICtDFT= 12500011 ScaDFX=  1.000000  1.000000  1.000000  1.000000
 Defaulting to unpruned grid for atomic number  80.
 Range of M.O.s used for correlation:     7    79
 NBasis=    79 NAE=    23 NBE=    23 NFC=     6 NFV=     0
 NROrb=     73 NOA=    17 NOB=    17 NVA=    56 NVB=    56
 Disk-based method using ON**2 memory for 17 occupieds at a time.
 Estimated scratch disk usage=    21355350 words.
 Actual    scratch disk usage=    19844950 words.
 GetIJB would need an additional   279871539 words of memory to use all  24 processors.
 JobTyp=1 Pass  1:  I=   7 to  23 NPSUse=  6 ParTrn=T ParDer=T DoDerP=T.
 (rs|ai) integrals will be sorted in core.
 Spin components of T(2) and E(2):
     alpha-alpha T2 =       0.2962936924D-01 E2=     -0.1018895111D+00
     alpha-beta  T2 =       0.1387721230D+00 E2=     -0.4556260104D+00
     beta-beta   T2 =       0.2962936924D-01 E2=     -0.1018895111D+00
 ANorm=    0.1094545961D+01
 E2 =    -0.6594050326D+00 EUMP2 =    -0.65213813447003D+03
          IDoAtm=111111
          Differentiating once with respect to electric field.
                with respect to dipole field.
          Differentiating once with respect to nuclear coordinates.
 Keep R1 ints in memory in canonical form, NReq=16716748.
          There are     1 degrees of freedom in the 1st order CPHF.  IDoFFX=0 NUNeed=     1.
 LinEq1:  Iter=  0 NonCon=     1 RMS=7.27D-03 Max=1.41D-01 NDo=     1
 AX will form     1 AO Fock derivatives at one time.
 LinEq1:  Iter=  1 NonCon=     1 RMS=1.58D-03 Max=1.75D-02 NDo=     1
 LinEq1:  Iter=  2 NonCon=     1 RMS=5.68D-04 Max=6.31D-03 NDo=     1
 LinEq1:  Iter=  3 NonCon=     1 RMS=1.20D-04 Max=1.50D-03 NDo=     1
 LinEq1:  Iter=  4 NonCon=     1 RMS=3.21D-05 Max=3.58D-04 NDo=     1
 LinEq1:  Iter=  5 NonCon=     1 RMS=1.09D-05 Max=1.99D-04 NDo=     1
 LinEq1:  Iter=  6 NonCon=     1 RMS=3.22D-06 Max=3.32D-05 NDo=     1
 LinEq1:  Iter=  7 NonCon=     1 RMS=9.89D-07 Max=1.51D-05 NDo=     1
 LinEq1:  Iter=  8 NonCon=     1 RMS=2.10D-07 Max=2.08D-06 NDo=     1
 LinEq1:  Iter=  9 NonCon=     1 RMS=4.80D-08 Max=5.82D-07 NDo=     1
 LinEq1:  Iter= 10 NonCon=     1 RMS=1.01D-08 Max=9.13D-08 NDo=     1
 LinEq1:  Iter= 11 NonCon=     1 RMS=1.95D-09 Max=2.51D-08 NDo=     1
 LinEq1:  Iter= 12 NonCon=     1 RMS=2.59D-10 Max=1.70D-09 NDo=     1
 LinEq1:  Iter= 13 NonCon=     0 RMS=3.01D-11 Max=4.60D-10 NDo=     1
 Linear equations converged to 1.000D-10 1.000D-09 after    13 iterations.
 End of Minotr F.D. properties file   721 does not exist.
 End of Minotr F.D. properties file   722 does not exist.
 End of Minotr F.D. properties file   788 does not exist.
 PrsmSu:  requested number of processors reduced to:  13 ShMem   1 Linda.
   1 Symmetry operations used in ECPInt.
 ECPInt:  NShTT=     630 NPrTT=    2138 LenC2=     623 LenP2D=    1806.
 LDataN:  DoStor=T MaxTD1= 9 Len=  602
 Calling FoFJK, ICntrl=  10002127 FMM=F ISym2X=0 I1Cent= 0 IOpClX= 0 NMat=1 NMatS=1 NMatT=0.
 ***** Axes restored to original set *****
 -------------------------------------------------------------------
 Center     Atomic                   Forces (Hartrees/Bohr)
 Number     Number              X              Y              Z
 -------------------------------------------------------------------
      1        6           0.002263955    0.002266778   -0.000010776
      2       80           0.003309254    0.003244541    0.000004258
      3        1          -0.001231734   -0.000713867   -0.000372355
      4        1          -0.001117759   -0.000849905    0.000489663
      5        1          -0.000633075   -0.001378701   -0.000110673
      6       17          -0.002590641   -0.002568846   -0.000000118
 -------------------------------------------------------------------
 Cartesian Forces:  Max     0.003309254 RMS     0.001695472

 GradGradGradGradGradGradGradGradGradGradGradGradGradGradGradGradGradGrad
 Berny optimization.
 Using GEDIIS/GDIIS optimizer.
 FormGI is forming the generalized inverse of G from B-inverse, IUseBI=4.
 Internal  Forces:  Max     0.003648320 RMS     0.001090043
 Search for a local minimum.
 Step number   2 out of a maximum of   27
 All quantities printed in internal units (Hartrees-Bohrs-Radians)
 Mixed Optimization -- RFO/linear search
 Update second derivatives using D2CorX and points    1    2
 DE= -2.31D-03 DEPred=-2.19D-03 R= 1.06D+00
 TightC=F SS=  1.41D+00  RLast= 1.64D-01 DXNew= 5.0454D-01 4.9195D-01
 Trust test= 1.06D+00 RLast= 1.64D-01 DXMaxT set to 4.92D-01
 The second derivative matrix:
                          R1        R2        R3        R4        R5
           R1           0.16129
           R2          -0.00170   0.34546
           R3          -0.00169   0.00016   0.34545
           R4          -0.00172   0.00016   0.00016   0.34546
           R5          -0.00833   0.00182   0.00183   0.00181   0.14869
           A1          -0.00214   0.00036   0.00036   0.00036  -0.00265
           A2          -0.00053   0.00012   0.00012   0.00012  -0.00156
           A3           0.00396  -0.00056  -0.00056  -0.00056   0.00153
           A4           0.00393  -0.00063  -0.00063  -0.00063   0.00384
           A5          -0.00212   0.00028   0.00028   0.00028  -0.00029
           A6          -0.00305   0.00042   0.00042   0.00042  -0.00094
           A7          -0.00027   0.00004   0.00004   0.00004  -0.00018
           A8           0.00003  -0.00000  -0.00000  -0.00000   0.00002
           D1           0.00567  -0.00085  -0.00085  -0.00085   0.00392
           D2          -0.00473   0.00071   0.00071   0.00071  -0.00327
           D3           0.00629  -0.00095  -0.00095  -0.00095   0.00436
           D4           0.01103  -0.00166  -0.00166  -0.00166   0.00763
                          A1        A2        A3        A4        A5
           A1           0.15978
           A2          -0.00018   0.15990
           A3          -0.00005   0.00011   0.16054
           A4           0.00027   0.00026   0.00023   0.15973
           A5           0.00010  -0.00002  -0.00036  -0.00023   0.16022
           A6           0.00007  -0.00007  -0.00045  -0.00023   0.00029
           A7          -0.00001  -0.00001  -0.00003   0.00000   0.00002
           A8           0.00000   0.00000   0.00000  -0.00000  -0.00000
           D1           0.00016   0.00027   0.00054  -0.00004  -0.00042
           D2          -0.00014  -0.00022  -0.00045   0.00004   0.00035
           D3           0.00018   0.00030   0.00060  -0.00005  -0.00047
           D4           0.00032   0.00052   0.00105  -0.00009  -0.00082
                          A6        A7        A8        D1        D2
           A6           0.16037
           A7           0.00002   0.00230
           A8          -0.00000  -0.00000   0.00230
           D1          -0.00048  -0.00002   0.00000   0.00264
           D2           0.00040   0.00001  -0.00000  -0.00029   0.00254
           D3          -0.00053  -0.00002   0.00000   0.00038  -0.00032
           D4          -0.00093  -0.00003   0.00000   0.00066  -0.00056
                          D3        D4
           D3           0.00272
           D4           0.00074   0.00359
 ITU=  1  0
 Use linear search instead of GDIIS.
     Eigenvalues ---    0.00230   0.00230   0.05058   0.05676   0.08813
     Eigenvalues ---    0.14331   0.16000   0.16003   0.16936   0.34530
     Eigenvalues ---    0.34530   0.34593
 RFO step:  Lambda=-1.82757270D-04 EMin= 2.29999637D-03
 Quartic linear search produced a step of  0.03599.
 Iteration  1 RMS(Cart)=  0.01336300 RMS(Int)=  0.00015505
 Iteration  2 RMS(Cart)=  0.00014243 RMS(Int)=  0.00007263
 Iteration  3 RMS(Cart)=  0.00000001 RMS(Int)=  0.00007263
 Variable       Old X    -DE/DX   Delta X   Delta X   Delta X     New X
                                 (Linear)    (Quad)   (Total)
    R1        3.87471   0.00099  -0.00454   0.00680   0.00225   3.87696
    R2        2.07289  -0.00006   0.00030  -0.00012   0.00018   2.07307
    R3        2.07289  -0.00005   0.00030  -0.00012   0.00019   2.07308
    R4        2.07289  -0.00006   0.00030  -0.00013   0.00017   2.07306
    R5        4.37882  -0.00365  -0.00358  -0.02218  -0.02576   4.35306
    A1        1.89491   0.00031  -0.00025   0.00982   0.00962   1.90453
    A2        1.89465   0.00051  -0.00026   0.01010   0.00988   1.90453
    A3        1.89440   0.00106  -0.00027   0.01046   0.01019   1.90459
    A4        1.92603  -0.00007   0.00024  -0.00941  -0.00935   1.91668
    A5        1.92649  -0.00082   0.00026  -0.00995  -0.00981   1.91667
    A6        1.92650  -0.00093   0.00026  -0.00997  -0.00982   1.91668
    A7        3.14198  -0.00005   0.00002  -0.02222  -0.02221   3.11977
    A8        3.14144   0.00000  -0.00001   0.00212   0.00211   3.14355
    D1        2.07468   0.00065  -0.00032   0.01257   0.01220   2.08687
    D2       -2.07480  -0.00054   0.00032  -0.01248  -0.01211  -2.08691
    D3        2.07448   0.00073  -0.00033   0.01281   0.01242   2.08691
    D4       -2.13391   0.00127  -0.00064   0.02529   0.02453  -2.10937
         Item               Value     Threshold  Converged?
 Maximum Force            0.003648     0.000450     NO 
 RMS     Force            0.001090     0.000300     NO 
 Maximum Displacement     0.035558     0.001800     NO 
 RMS     Displacement     0.013366     0.001200     NO 
 Predicted change in Energy=-9.435841D-05
 GradGradGradGradGradGradGradGradGradGradGradGradGradGradGradGradGradGrad

                          Input orientation:                          
 ---------------------------------------------------------------------
 Center     Atomic      Atomic             Coordinates (Angstroms)
 Number     Number       Type             X           Y           Z
 ---------------------------------------------------------------------
      1          6           0       -4.846891    1.612219   -0.000128
      2         80           0       -3.383137    3.049745   -0.003060
      3          1           0       -4.618989    0.868871    0.773791
      4          1           0       -4.876712    1.127709   -0.983910
      5          1           0       -5.814157    2.084618    0.211263
      6         17           0       -1.774763    4.698807    0.002044
 ---------------------------------------------------------------------
                    Distance matrix (angstroms):
                    1          2          3          4          5
     1  C    0.000000
     2  Hg   2.051601   0.000000
     3  H    1.097023   2.624317   0.000000
     4  H    1.097026   2.624320   1.795253   0.000000
     5  H    1.097018   2.624359   1.795245   1.795248   0.000000
     6  Cl   4.354883   2.303541   4.832560   4.831866   4.816062
                    6
     6  Cl   0.000000
 Stoichiometry    CH3ClHg
 Framework group  C1[X(CH3ClHg)]
 Deg. of freedom    12
 Full point group                 C1      NOp   1
 Largest Abelian subgroup         C1      NOp   1
 Largest concise Abelian subgroup C1      NOp   1
                         Standard orientation:                         
 ---------------------------------------------------------------------
 Center     Atomic      Atomic             Coordinates (Angstroms)
 Number     Number       Type             X           Y           Z
 ---------------------------------------------------------------------
      1          6           0        2.236474   -0.023674   -0.000006
      2         80           0        0.185080    0.005440    0.000001
      3          1           0        2.603619    0.522242    0.877854
      4          1           0        2.602673    0.455913   -0.916172
      5          1           0        2.581153   -1.064433    0.038292
      6         17           0       -2.118393   -0.012170   -0.000003
 ---------------------------------------------------------------------
 Rotational constants (GHZ):         154.6667820           2.0556590           2.0554970
 Standard basis: def2SVP (5D, 7F)
 There are    86 symmetry adapted cartesian basis functions of A   symmetry.
 There are    79 symmetry adapted basis functions of A   symmetry.
    79 basis functions,   148 primitive gaussians,    86 cartesian basis functions
    23 alpha electrons       23 beta electrons
       nuclear repulsion energy       148.7092955524 Hartrees.
 NAtoms=    6 NActive=    6 NUniq=    6 SFac= 1.00D+00 NAtFMM=   60 NAOKFM=F Big=F
 Integral buffers will be    131072 words long.
 Raffenetti 1 integral format.
 Two-electron integral symmetry is turned on.
 One-electron integrals computed using PRISM.
 PrsmSu:  requested number of processors reduced to:  13 ShMem   1 Linda.
   1 Symmetry operations used in ECPInt.
 ECPInt:  NShTT=     630 NPrTT=    2138 LenC2=     623 LenP2D=    1809.
 LDataN:  DoStor=T MaxTD1= 8 Len=  415
 NBasis=    79 RedAO= T EigKep=  8.35D-03  NBF=    79
 NBsUse=    79 1.00D-06 EigRej= -1.00D+00 NBFU=    79
 Initial guess from the checkpoint file:  "ch3hgcl_gas_mp2.chk"
 B after Tr=    -0.000000    0.000000    0.000000
         Rot=    0.999756    0.022108   -0.000002    0.000159 Ang=   2.53 deg.
 ExpMin= 5.64D-02 ExpMax= 1.04D+04 ExpMxC= 1.57D+03 IAcc=2 IRadAn=         4 AccDes= 0.00D+00
 Harris functional with IExCor=  205 and IRadAn=       4 diagonalized for initial guess.
 HarFok:  IExCor=  205 AccDes= 0.00D+00 IRadAn=         4 IDoV= 1 UseB2=F ITyADJ=14
 ICtDFT=  3500011 ScaDFX=  1.000000  1.000000  1.000000  1.000000
 Defaulting to unpruned grid for atomic number  80.
 FoFCou: FMM=F IPFlag=           0 FMFlag=      100000 FMFlg1=           0
         NFxFlg=           0 DoJE=T BraDBF=F KetDBF=T FulRan=T
         wScrn=  0.000000 ICntrl=       500 IOpCl=  0 I1Cent=   200000004 NGrid=           0
         NMat0=    1 NMatS0=      1 NMatT0=    0 NMatD0=    1 NMtDS0=    0 NMtDT0=    0
 Petite list used in FoFCou.
 Keep R1 ints in memory in canonical form, NReq=16714687.
 Requested convergence on RMS density matrix=1.00D-08 within  32 cycles.
 Requested convergence on MAX density matrix=1.00D-06.
 Requested convergence on             energy=1.00D-06.
 No special actions if energy rises.
 SCF Done:  E(RHF) =  -651.478704583     A.U. after   10 cycles
            NFock= 10  Conv=0.82D-08     -V/T= 2.1850
 QCSCF skips out because SCF is already converged.
 ExpMin= 5.64D-02 ExpMax= 1.04D+04 ExpMxC= 1.57D+03 IAcc=3 IRadAn=         5 AccDes= 0.00D+00
 HarFok:  IExCor=  205 AccDes= 0.00D+00 IRadAn=         5 IDoV=-2 UseB2=F ITyADJ=14
 ICtDFT= 12500011 ScaDFX=  1.000000  1.000000  1.000000  1.000000
 Defaulting to unpruned grid for atomic number  80.
 Range of M.O.s used for correlation:     7    79
 NBasis=    79 NAE=    23 NBE=    23 NFC=     6 NFV=     0
 NROrb=     73 NOA=    17 NOB=    17 NVA=    56 NVB=    56
 Disk-based method using ON**2 memory for 17 occupieds at a time.
 Estimated scratch disk usage=    21355350 words.
 Actual    scratch disk usage=    19844950 words.
 GetIJB would need an additional   279871539 words of memory to use all  24 processors.
 JobTyp=1 Pass  1:  I=   7 to  23 NPSUse=  6 ParTrn=T ParDer=T DoDerP=T.
 (rs|ai) integrals will be sorted in core.
 Spin components of T(2) and E(2):
     alpha-alpha T2 =       0.2963390943D-01 E2=     -0.1019300339D+00
     alpha-beta  T2 =       0.1386914866D+00 E2=     -0.4556503311D+00
     beta-beta   T2 =       0.2963390943D-01 E2=     -0.1019300339D+00
 ANorm=    0.1094513273D+01
 E2 =    -0.6595103989D+00 EUMP2 =    -0.65213821498193D+03
          IDoAtm=111111
          Differentiating once with respect to electric field.
                with respect to dipole field.
          Differentiating once with respect to nuclear coordinates.
 Keep R1 ints in memory in canonical form, NReq=16716787.
          There are     1 degrees of freedom in the 1st order CPHF.  IDoFFX=0 NUNeed=     1.
 LinEq1:  Iter=  0 NonCon=     1 RMS=7.25D-03 Max=1.38D-01 NDo=     1
 AX will form     1 AO Fock derivatives at one time.
 LinEq1:  Iter=  1 NonCon=     1 RMS=1.58D-03 Max=1.76D-02 NDo=     1
 LinEq1:  Iter=  2 NonCon=     1 RMS=5.67D-04 Max=6.14D-03 NDo=     1
 LinEq1:  Iter=  3 NonCon=     1 RMS=1.19D-04 Max=1.46D-03 NDo=     1
 LinEq1:  Iter=  4 NonCon=     1 RMS=3.18D-05 Max=3.53D-04 NDo=     1
 LinEq1:  Iter=  5 NonCon=     1 RMS=1.08D-05 Max=1.93D-04 NDo=     1
 LinEq1:  Iter=  6 NonCon=     1 RMS=3.17D-06 Max=4.39D-05 NDo=     1
 LinEq1:  Iter=  7 NonCon=     1 RMS=9.73D-07 Max=1.44D-05 NDo=     1
 LinEq1:  Iter=  8 NonCon=     1 RMS=2.07D-07 Max=2.05D-06 NDo=     1
 LinEq1:  Iter=  9 NonCon=     1 RMS=4.78D-08 Max=5.81D-07 NDo=     1
 LinEq1:  Iter= 10 NonCon=     1 RMS=1.01D-08 Max=1.03D-07 NDo=     1
 LinEq1:  Iter= 11 NonCon=     1 RMS=1.98D-09 Max=2.46D-08 NDo=     1
 LinEq1:  Iter= 12 NonCon=     1 RMS=3.99D-10 Max=4.85D-09 NDo=     1
 LinEq1:  Iter= 13 NonCon=     1 RMS=1.43D-10 Max=1.17D-09 NDo=     1
 LinEq1:  Iter= 14 NonCon=     0 RMS=2.43D-11 Max=3.57D-10 NDo=     1
 Linear equations converged to 1.000D-10 1.000D-09 after    14 iterations.
 End of Minotr F.D. properties file   721 does not exist.
 End of Minotr F.D. properties file   722 does not exist.
 End of Minotr F.D. properties file   788 does not exist.
 PrsmSu:  requested number of processors reduced to:  13 ShMem   1 Linda.
   1 Symmetry operations used in ECPInt.
 ECPInt:  NShTT=     630 NPrTT=    2138 LenC2=     623 LenP2D=    1809.
 LDataN:  DoStor=T MaxTD1= 9 Len=  602
 Calling FoFJK, ICntrl=  10002127 FMM=F ISym2X=0 I1Cent= 0 IOpClX= 0 NMat=1 NMatS=1 NMatT=0.
 ***** Axes restored to original set *****
 -------------------------------------------------------------------
 Center     Atomic                   Forces (Hartrees/Bohr)
 Number     Number              X              Y              Z
 -------------------------------------------------------------------
      1        6           0.001728079    0.000418226   -0.000158650
      2       80          -0.001124702    0.000847789    0.000236164
      3        1          -0.000485690   -0.000392294   -0.000091798
      4        1          -0.000443658   -0.000411731    0.000107771
      5        1          -0.000185745   -0.000174878    0.000002134
      6       17           0.000511717   -0.000287112   -0.000095622
 -------------------------------------------------------------------
 Cartesian Forces:  Max     0.001728079 RMS     0.000597240

 GradGradGradGradGradGradGradGradGradGradGradGradGradGradGradGradGradGrad
 Berny optimization.
 Using GEDIIS/GDIIS optimizer.
 FormGI is forming the generalized inverse of G from B-inverse, IUseBI=4.
 Internal  Forces:  Max     0.002500858 RMS     0.000642368
 Search for a local minimum.
 Step number   3 out of a maximum of   27
 All quantities printed in internal units (Hartrees-Bohrs-Radians)
 Mixed Optimization -- En-DIIS/RFO-DIIS
 Update second derivatives using D2CorX and points    1    2    3
 DE= -8.05D-05 DEPred=-9.44D-05 R= 8.53D-01
 TightC=F SS=  1.41D+00  RLast= 5.28D-02 DXNew= 8.2736D-01 1.5852D-01
 Trust test= 8.53D-01 RLast= 5.28D-02 DXMaxT set to 4.92D-01
 The second derivative matrix:
                          R1        R2        R3        R4        R5
           R1           0.16023
           R2          -0.00161   0.34541
           R3          -0.00160   0.00010   0.34540
           R4          -0.00162   0.00011   0.00011   0.34541
           R5          -0.00756   0.00389   0.00384   0.00365   0.14566
           A1          -0.00313  -0.00024  -0.00025  -0.00022   0.03032
           A2          -0.00153  -0.00049  -0.00050  -0.00047   0.03018
           A3           0.00316  -0.00122  -0.00121  -0.00116   0.01447
           A4           0.00492  -0.00004  -0.00002  -0.00005  -0.03094
           A5          -0.00125   0.00090   0.00090   0.00086  -0.02164
           A6          -0.00218   0.00104   0.00104   0.00100  -0.02112
           A7          -0.00088   0.00026   0.00021   0.00016   0.04907
           A8           0.00004  -0.00001  -0.00001  -0.00001  -0.00070
           D1           0.00569  -0.00083  -0.00083  -0.00083  -0.00081
           D2          -0.00481   0.00071   0.00070   0.00070   0.00472
           D3           0.00638  -0.00094  -0.00093  -0.00093  -0.00556
           D4           0.01119  -0.00165  -0.00163  -0.00163  -0.01028
                          A1        A2        A3        A4        A5
           A1           0.14809
           A2          -0.01200   0.14797
           A3          -0.01202  -0.01164   0.15304
           A4           0.01182   0.01198   0.01256   0.14836
           A5           0.01168   0.01150   0.00892  -0.01196   0.15014
           A6           0.01156   0.01135   0.00853  -0.01188  -0.00959
           A7           0.00133   0.00041  -0.01082  -0.00259   0.00531
           A8          -0.00005  -0.00003   0.00015   0.00007  -0.00006
           D1           0.00061   0.00078   0.00178  -0.00041  -0.00129
           D2          -0.00040  -0.00061  -0.00237   0.00012   0.00151
           D3           0.00061   0.00088   0.00302  -0.00026  -0.00197
           D4           0.00100   0.00149   0.00539  -0.00039  -0.00348
                          A6        A7        A8        D1        D2
           A6           0.15070
           A7           0.00585   0.03318
           A8          -0.00007  -0.00049   0.00231
           D1          -0.00138  -0.00207   0.00004   0.00275
           D2           0.00162   0.00426  -0.00007  -0.00054   0.00311
           D3          -0.00211  -0.00514   0.00009   0.00068  -0.00099
           D4          -0.00374  -0.00940   0.00016   0.00123  -0.00180
                          D3        D4
           D3           0.00353
           D4           0.00222   0.00632
 ITU=  1  1  0
 Use linear search instead of GDIIS.
     Eigenvalues ---    0.00229   0.00263   0.04795   0.05524   0.08627
     Eigenvalues ---    0.15363   0.15965   0.16514   0.17216   0.34530
     Eigenvalues ---    0.34530   0.34598
 RFO step:  Lambda=-1.34503467D-03 EMin= 2.29295782D-03
 Quartic linear search produced a step of -0.13265.
 Maximum step size (   0.492) exceeded in Quadratic search.
    -- Step size scaled by   0.912
 Iteration  1 RMS(Cart)=  0.11327927 RMS(Int)=  0.05543052
 Iteration  2 RMS(Cart)=  0.10502695 RMS(Int)=  0.01111100
 Iteration  3 RMS(Cart)=  0.00005511 RMS(Int)=  0.01107967
 Iteration  4 RMS(Cart)=  0.00005477 RMS(Int)=  0.01104854
 Iteration  5 RMS(Cart)=  0.00005443 RMS(Int)=  0.01101761
 Iteration  6 RMS(Cart)=  0.00005410 RMS(Int)=  0.01098687
 Iteration  7 RMS(Cart)=  0.00005377 RMS(Int)=  0.01095633
 Iteration  8 RMS(Cart)=  0.00005344 RMS(Int)=  0.01092597
 Iteration  9 RMS(Cart)=  0.00005312 RMS(Int)=  0.01089581
 Iteration 10 RMS(Cart)=  0.00005280 RMS(Int)=  0.01086584
 Iteration 11 RMS(Cart)=  0.00005248 RMS(Int)=  0.01083605
 Iteration 12 RMS(Cart)=  0.00005216 RMS(Int)=  0.01080645
 Iteration 13 RMS(Cart)=  0.00005185 RMS(Int)=  0.01077703
 Iteration 14 RMS(Cart)=  0.00005154 RMS(Int)=  0.01074779
 Iteration 15 RMS(Cart)=  0.00005123 RMS(Int)=  0.01071873
 Iteration 16 RMS(Cart)=  0.00005093 RMS(Int)=  0.01068985
 Iteration 17 RMS(Cart)=  0.00005063 RMS(Int)=  0.01066114
 Iteration 18 RMS(Cart)=  0.00005033 RMS(Int)=  0.01063261
 Iteration 19 RMS(Cart)=  0.00005003 RMS(Int)=  0.01060425
 Iteration 20 RMS(Cart)=  0.00004974 RMS(Int)=  0.01057607
 Iteration 21 RMS(Cart)=  0.00004945 RMS(Int)=  0.01054805
 Iteration 22 RMS(Cart)=  0.00004916 RMS(Int)=  0.01052020
 Iteration 23 RMS(Cart)=  0.00004887 RMS(Int)=  0.01049252
 Iteration 24 RMS(Cart)=  0.00004859 RMS(Int)=  0.01046500
 Iteration 25 RMS(Cart)=  0.00004831 RMS(Int)=  0.01043765
 Iteration 26 RMS(Cart)=  0.00004803 RMS(Int)=  0.01041046
 Iteration 27 RMS(Cart)=  0.00004776 RMS(Int)=  0.01038344
 Iteration 28 RMS(Cart)=  0.00004748 RMS(Int)=  0.01035657
 Iteration 29 RMS(Cart)=  0.00004721 RMS(Int)=  0.01032986
 Iteration 30 RMS(Cart)=  0.00004694 RMS(Int)=  0.01030330
 Iteration 31 RMS(Cart)=  0.00004668 RMS(Int)=  0.01027691
 Iteration 32 RMS(Cart)=  0.00004641 RMS(Int)=  0.01025066
 Iteration 33 RMS(Cart)=  0.00004615 RMS(Int)=  0.01022457
 Iteration 34 RMS(Cart)=  0.00004589 RMS(Int)=  0.01019863
 Iteration 35 RMS(Cart)=  0.00004563 RMS(Int)=  0.01017284
 Iteration 36 RMS(Cart)=  0.00004538 RMS(Int)=  0.01014720
 Iteration 37 RMS(Cart)=  0.00004513 RMS(Int)=  0.01012171
 Iteration 38 RMS(Cart)=  0.00004488 RMS(Int)=  0.01009636
 Iteration 39 RMS(Cart)=  0.00004463 RMS(Int)=  0.01007116
 Iteration 40 RMS(Cart)=  0.00004438 RMS(Int)=  0.01004610
 Iteration 41 RMS(Cart)=  0.00004414 RMS(Int)=  0.01002119
 Iteration 42 RMS(Cart)=  0.00004389 RMS(Int)=  0.00999642
 Iteration 43 RMS(Cart)=  0.00004365 RMS(Int)=  0.00997178
 Iteration 44 RMS(Cart)=  0.00004342 RMS(Int)=  0.00994729
 Iteration 45 RMS(Cart)=  0.00004318 RMS(Int)=  0.00992293
 Iteration 46 RMS(Cart)=  0.00004295 RMS(Int)=  0.00989871
 Iteration 47 RMS(Cart)=  0.00004271 RMS(Int)=  0.00987463
 Iteration 48 RMS(Cart)=  0.00004248 RMS(Int)=  0.00985068
 Iteration 49 RMS(Cart)=  0.00004225 RMS(Int)=  0.00982687
 Iteration 50 RMS(Cart)=  0.00004203 RMS(Int)=  0.00980318
 Iteration 51 RMS(Cart)=  0.00004180 RMS(Int)=  0.00977963
 Iteration 52 RMS(Cart)=  0.00004158 RMS(Int)=  0.00975621
 Iteration 53 RMS(Cart)=  0.00004136 RMS(Int)=  0.00973292
 Iteration 54 RMS(Cart)=  0.00004114 RMS(Int)=  0.00970975
 Iteration 55 RMS(Cart)=  0.00004092 RMS(Int)=  0.00968671
 Iteration 56 RMS(Cart)=  0.00004071 RMS(Int)=  0.00966380
 Iteration 57 RMS(Cart)=  0.00004049 RMS(Int)=  0.00964102
 Iteration 58 RMS(Cart)=  0.00004028 RMS(Int)=  0.00961835
 Iteration 59 RMS(Cart)=  0.00004007 RMS(Int)=  0.00959581
 Iteration 60 RMS(Cart)=  0.00003986 RMS(Int)=  0.00957339
 Iteration 61 RMS(Cart)=  0.00003965 RMS(Int)=  0.00955110
 Iteration 62 RMS(Cart)=  0.00003945 RMS(Int)=  0.00952892
 Iteration 63 RMS(Cart)=  0.00003924 RMS(Int)=  0.00950686
 Iteration 64 RMS(Cart)=  0.00003904 RMS(Int)=  0.00948492
 Iteration 65 RMS(Cart)=  0.00003884 RMS(Int)=  0.00946310
 Iteration 66 RMS(Cart)=  0.00003864 RMS(Int)=  0.00944139
 Iteration 67 RMS(Cart)=  0.00003844 RMS(Int)=  0.00941980
 Iteration 68 RMS(Cart)=  0.00003825 RMS(Int)=  0.00939833
 Iteration 69 RMS(Cart)=  0.00003805 RMS(Int)=  0.00937696
 Iteration 70 RMS(Cart)=  0.00003786 RMS(Int)=  0.00935571
 Iteration 71 RMS(Cart)=  0.00003767 RMS(Int)=  0.00933457
 Iteration 72 RMS(Cart)=  0.00003748 RMS(Int)=  0.00931355
 Iteration 73 RMS(Cart)=  0.00003729 RMS(Int)=  0.00929263
 Iteration 74 RMS(Cart)=  0.00003710 RMS(Int)=  0.00927182
 Iteration 75 RMS(Cart)=  0.00003691 RMS(Int)=  0.00925112
 Iteration 76 RMS(Cart)=  0.00003673 RMS(Int)=  0.00923053
 Iteration 77 RMS(Cart)=  0.00003655 RMS(Int)=  0.00921004
 Iteration 78 RMS(Cart)=  0.00003636 RMS(Int)=  0.00918966
 Iteration 79 RMS(Cart)=  0.00003618 RMS(Int)=  0.00916939
 Iteration 80 RMS(Cart)=  0.00003601 RMS(Int)=  0.00914922
 Iteration 81 RMS(Cart)=  0.00003583 RMS(Int)=  0.00912915
 Iteration 82 RMS(Cart)=  0.00003565 RMS(Int)=  0.00910919
 Iteration 83 RMS(Cart)=  0.00003548 RMS(Int)=  0.00908932
 Iteration 84 RMS(Cart)=  0.00003530 RMS(Int)=  0.00906956
 Iteration 85 RMS(Cart)=  0.00003513 RMS(Int)=  0.00904990
 Iteration 86 RMS(Cart)=  0.00003496 RMS(Int)=  0.00903034
 Iteration 87 RMS(Cart)=  0.00003479 RMS(Int)=  0.00901088
 Iteration 88 RMS(Cart)=  0.00003462 RMS(Int)=  0.00899152
 Iteration 89 RMS(Cart)=  0.00003445 RMS(Int)=  0.00897225
 Iteration 90 RMS(Cart)=  0.00003429 RMS(Int)=  0.00895308
 Iteration 91 RMS(Cart)=  0.00003412 RMS(Int)=  0.00893401
 Iteration 92 RMS(Cart)=  0.00003396 RMS(Int)=  0.00891503
 Iteration 93 RMS(Cart)=  0.00003380 RMS(Int)=  0.00889615
 Iteration 94 RMS(Cart)=  0.00003363 RMS(Int)=  0.00887736
 Iteration 95 RMS(Cart)=  0.00003347 RMS(Int)=  0.00885866
 Iteration 96 RMS(Cart)=  0.00003332 RMS(Int)=  0.00884006
 Iteration 97 RMS(Cart)=  0.00003316 RMS(Int)=  0.00882155
 Iteration 98 RMS(Cart)=  0.00003300 RMS(Int)=  0.00880313
 Iteration 99 RMS(Cart)=  0.00003285 RMS(Int)=  0.00878480
 Iteration100 RMS(Cart)=  0.00003269 RMS(Int)=  0.00876656
 New curvilinear step not converged.
 ITry= 1 IFail=1 DXMaxC= 4.87D-01 DCOld= 1.00D+10 DXMaxT= 4.92D-01 DXLimC= 3.00D+00 Rises=F
 Iteration  1 RMS(Cart)=  0.11161804 RMS(Int)=  0.04536206
 Iteration  2 RMS(Cart)=  0.09662807 RMS(Int)=  0.00758608
 Iteration  3 RMS(Cart)=  0.00832324 RMS(Int)=  0.00210348
 Iteration  4 RMS(Cart)=  0.00000227 RMS(Int)=  0.00210346
 Iteration  5 RMS(Cart)=  0.00000001 RMS(Int)=  0.00210346
 ITry= 2 IFail=0 DXMaxC= 4.55D-01 DCOld= 1.00D+10 DXMaxT= 4.92D-01 DXLimC= 3.00D+00 Rises=F
 Variable       Old X    -DE/DX   Delta X   Delta X   Delta X     New X
                                 (Linear)    (Quad)   (Total)
    R1        3.87696  -0.00004  -0.00030  -0.02335  -0.02131   3.85565
    R2        2.07307   0.00010  -0.00002   0.00387   0.00346   2.07653
    R3        2.07308   0.00010  -0.00002   0.00390   0.00348   2.07656
    R4        2.07306   0.00009  -0.00002   0.00379   0.00339   2.07645
    R5        4.35306   0.00015   0.00342  -0.19149  -0.16893   4.18413
    A1        1.90453   0.00024  -0.00128   0.06066   0.05495   1.95948
    A2        1.90453   0.00035  -0.00131   0.06248   0.05595   1.96048
    A3        1.90459  -0.00007  -0.00135   0.06131   0.05332   1.95791
    A4        1.91668  -0.00013   0.00124  -0.05846  -0.05678   1.85990
    A5        1.91667  -0.00016   0.00130  -0.06178  -0.05743   1.85925
    A6        1.91668  -0.00022   0.00130  -0.06182  -0.05713   1.85954
    A7        3.11977   0.00250   0.00295   0.42656   0.38685   3.50662
    A8        3.14355  -0.00004  -0.00028   0.00094   0.00056   3.14411
    D1        2.08687   0.00043  -0.00162   0.07706   0.06579   2.15266
    D2       -2.08691  -0.00015   0.00161  -0.07434  -0.06370  -2.15061
    D3        2.08691   0.00025  -0.00165   0.07654   0.06515   2.15205
    D4       -2.10937   0.00040  -0.00325   0.15088   0.12885  -1.98052
         Item               Value     Threshold  Converged?
 Maximum Force            0.002501     0.000450     NO 
 RMS     Force            0.000642     0.000300     NO 
 Maximum Displacement     0.455161     0.001800     NO 
 RMS     Displacement     0.206679     0.001200     NO 
 Predicted change in Energy=-7.962779D-04
 GradGradGradGradGradGradGradGradGradGradGradGradGradGradGradGradGradGrad

                          Input orientation:                          
 ---------------------------------------------------------------------
 Center     Atomic      Atomic             Coordinates (Angstroms)
 Number     Number       Type             X           Y           Z
 ---------------------------------------------------------------------
      1          6           0       -4.816743    1.668418    0.003446
      2         80           0       -3.580566    3.290606    0.060843
      3          1           0       -4.545160    0.911194    0.752002
      4          1           0       -4.798939    1.164331   -0.972819
      5          1           0       -5.864177    1.938005    0.197325
      6         17           0       -1.709063    4.469417   -0.040797
 ---------------------------------------------------------------------
                    Distance matrix (angstroms):
                    1          2          3          4          5
     1  C    0.000000
     2  Hg   2.040323   0.000000
     3  H    1.098855   2.658898   0.000000
     4  H    1.098870   2.659687   1.761672   0.000000
     5  H    1.098811   2.657637   1.761197   1.761403   0.000000
     6  Cl   4.183925   2.214148   4.618758   4.619480   4.871316
                    6
     6  Cl   0.000000
 Stoichiometry    CH3ClHg
 Framework group  C1[X(CH3ClHg)]
 Deg. of freedom    12
 Full point group                 C1      NOp   1
 Largest Abelian subgroup         C1      NOp   1
 Largest concise Abelian subgroup C1      NOp   1
                         Standard orientation:                         
 ---------------------------------------------------------------------
 Center     Atomic      Atomic             Coordinates (Angstroms)
 Number     Number       Type             X           Y           Z
 ---------------------------------------------------------------------
      1          6           0        2.157450    0.380120   -0.000038
      2         80           0        0.171924   -0.089571   -0.000010
      3          1           0        2.445962    0.969538    0.881341
      4          1           0        2.446679    0.970835   -0.880331
      5          1           0        2.795361   -0.514561   -0.000240
      6         17           0       -2.022744    0.203479    0.000016
 ---------------------------------------------------------------------
 Rotational constants (GHZ):          60.5675212           2.2315795           2.1813361
 Standard basis: def2SVP (5D, 7F)
 There are    86 symmetry adapted cartesian basis functions of A   symmetry.
 There are    79 symmetry adapted basis functions of A   symmetry.
    79 basis functions,   148 primitive gaussians,    86 cartesian basis functions
    23 alpha electrons       23 beta electrons
       nuclear repulsion energy       152.5368073196 Hartrees.
 NAtoms=    6 NActive=    6 NUniq=    6 SFac= 1.00D+00 NAtFMM=   60 NAOKFM=F Big=F
 Integral buffers will be    131072 words long.
 Raffenetti 1 integral format.
 Two-electron integral symmetry is turned on.
 One-electron integrals computed using PRISM.
 PrsmSu:  requested number of processors reduced to:  13 ShMem   1 Linda.
   1 Symmetry operations used in ECPInt.
 ECPInt:  NShTT=     630 NPrTT=    2138 LenC2=     623 LenP2D=    1820.
 LDataN:  DoStor=T MaxTD1= 8 Len=  415
 NBasis=    79 RedAO= T EigKep=  8.43D-03  NBF=    79
 NBsUse=    79 1.00D-06 EigRej= -1.00D+00 NBFU=    79
 Initial guess from the checkpoint file:  "ch3hgcl_gas_mp2.chk"
 B after Tr=    -0.000000   -0.000000   -0.000000
         Rot=   -0.636951    0.770902    0.001393    0.001466 Ang= 259.13 deg.
 ExpMin= 5.64D-02 ExpMax= 1.04D+04 ExpMxC= 1.57D+03 IAcc=2 IRadAn=         4 AccDes= 0.00D+00
 Harris functional with IExCor=  205 and IRadAn=       4 diagonalized for initial guess.
 HarFok:  IExCor=  205 AccDes= 0.00D+00 IRadAn=         4 IDoV= 1 UseB2=F ITyADJ=14
 ICtDFT=  3500011 ScaDFX=  1.000000  1.000000  1.000000  1.000000
 Defaulting to unpruned grid for atomic number  80.
 FoFCou: FMM=F IPFlag=           0 FMFlag=      100000 FMFlg1=           0
         NFxFlg=           0 DoJE=T BraDBF=F KetDBF=T FulRan=T
         wScrn=  0.000000 ICntrl=       500 IOpCl=  0 I1Cent=   200000004 NGrid=           0
         NMat0=    1 NMatS0=      1 NMatT0=    0 NMatD0=    1 NMtDS0=    0 NMtDT0=    0
 Petite list used in FoFCou.
 Keep R1 ints in memory in canonical form, NReq=16715077.
 Requested convergence on RMS density matrix=1.00D-08 within  32 cycles.
 Requested convergence on MAX density matrix=1.00D-06.
 Requested convergence on             energy=1.00D-06.
 No special actions if energy rises.
 SCF Done:  E(RHF) =  -651.465664449     A.U. after   13 cycles
            NFock= 13  Conv=0.54D-08     -V/T= 2.1847
 QCSCF skips out because SCF is already converged.
 ExpMin= 5.64D-02 ExpMax= 1.04D+04 ExpMxC= 1.57D+03 IAcc=3 IRadAn=         5 AccDes= 0.00D+00
 HarFok:  IExCor=  205 AccDes= 0.00D+00 IRadAn=         5 IDoV=-2 UseB2=F ITyADJ=14
 ICtDFT= 12500011 ScaDFX=  1.000000  1.000000  1.000000  1.000000
 Defaulting to unpruned grid for atomic number  80.
 Range of M.O.s used for correlation:     7    79
 NBasis=    79 NAE=    23 NBE=    23 NFC=     6 NFV=     0
 NROrb=     73 NOA=    17 NOB=    17 NVA=    56 NVB=    56
 Disk-based method using ON**2 memory for 17 occupieds at a time.
 Estimated scratch disk usage=    21511013 words.
 Actual    scratch disk usage=    19989349 words.
 GetIJB would need an additional   279873609 words of memory to use all  24 processors.
 JobTyp=1 Pass  1:  I=   7 to  23 NPSUse=  6 ParTrn=T ParDer=T DoDerP=T.
 (rs|ai) integrals will be sorted in core.
 Spin components of T(2) and E(2):
     alpha-alpha T2 =       0.2975326603D-01 E2=     -0.1024245202D+00
     alpha-beta  T2 =       0.1385247040D+00 E2=     -0.4563065244D+00
     beta-beta   T2 =       0.2975326603D-01 E2=     -0.1024245202D+00
 ANorm=    0.1094546132D+01
 E2 =    -0.6611555648D+00 EUMP2 =    -0.65212682001358D+03
          IDoAtm=111111
          Differentiating once with respect to electric field.
                with respect to dipole field.
          Differentiating once with respect to nuclear coordinates.
 Keep R1 ints in memory in canonical form, NReq=16716982.
          There are     1 degrees of freedom in the 1st order CPHF.  IDoFFX=0 NUNeed=     1.
 LinEq1:  Iter=  0 NonCon=     1 RMS=7.14D-03 Max=1.05D-01 NDo=     1
 AX will form     1 AO Fock derivatives at one time.
 LinEq1:  Iter=  1 NonCon=     1 RMS=1.59D-03 Max=1.85D-02 NDo=     1
 LinEq1:  Iter=  2 NonCon=     1 RMS=5.70D-04 Max=5.96D-03 NDo=     1
 LinEq1:  Iter=  3 NonCon=     1 RMS=1.19D-04 Max=1.09D-03 NDo=     1
 LinEq1:  Iter=  4 NonCon=     1 RMS=3.08D-05 Max=2.69D-04 NDo=     1
 LinEq1:  Iter=  5 NonCon=     1 RMS=1.06D-05 Max=1.39D-04 NDo=     1
 LinEq1:  Iter=  6 NonCon=     1 RMS=3.55D-06 Max=4.43D-05 NDo=     1
 LinEq1:  Iter=  7 NonCon=     1 RMS=1.07D-06 Max=1.44D-05 NDo=     1
 LinEq1:  Iter=  8 NonCon=     1 RMS=2.27D-07 Max=2.11D-06 NDo=     1
 LinEq1:  Iter=  9 NonCon=     1 RMS=6.45D-08 Max=6.64D-07 NDo=     1
 LinEq1:  Iter= 10 NonCon=     1 RMS=1.87D-08 Max=2.02D-07 NDo=     1
 LinEq1:  Iter= 11 NonCon=     1 RMS=4.78D-09 Max=3.60D-08 NDo=     1
 LinEq1:  Iter= 12 NonCon=     1 RMS=1.35D-09 Max=1.29D-08 NDo=     1
 LinEq1:  Iter= 13 NonCon=     1 RMS=2.73D-10 Max=3.25D-09 NDo=     1
 LinEq1:  Iter= 14 NonCon=     0 RMS=3.98D-11 Max=3.89D-10 NDo=     1
 Linear equations converged to 1.000D-10 1.000D-09 after    14 iterations.
 End of Minotr F.D. properties file   721 does not exist.
 End of Minotr F.D. properties file   722 does not exist.
 End of Minotr F.D. properties file   788 does not exist.
 PrsmSu:  requested number of processors reduced to:  13 ShMem   1 Linda.
   1 Symmetry operations used in ECPInt.
 ECPInt:  NShTT=     630 NPrTT=    2138 LenC2=     623 LenP2D=    1820.
 LDataN:  DoStor=T MaxTD1= 9 Len=  602
 Calling FoFJK, ICntrl=  10002127 FMM=F ISym2X=0 I1Cent= 0 IOpClX= 0 NMat=1 NMatS=1 NMatT=0.
 ***** Axes restored to original set *****
 -------------------------------------------------------------------
 Center     Atomic                   Forces (Hartrees/Bohr)
 Number     Number              X              Y              Z
 -------------------------------------------------------------------
      1        6          -0.023015842   -0.004338041    0.002803435
      2       80          -0.011065969   -0.033235810   -0.003309963
      3        1           0.005208803    0.004166943    0.002506437
      4        1           0.004474991    0.004965301   -0.002593383
      5        1          -0.000252902    0.000889083    0.000152026
      6       17           0.024650919    0.027552524    0.000441448
 -------------------------------------------------------------------
 Cartesian Forces:  Max     0.033235810 RMS     0.013467042

 GradGradGradGradGradGradGradGradGradGradGradGradGradGradGradGradGradGrad
 Berny optimization.
 Using GEDIIS/GDIIS optimizer.
 FormGI is forming the generalized inverse of G from B-inverse, IUseBI=4.
 Internal  Forces:  Max     0.043448778 RMS     0.013882387
 Search for a local minimum.
 Step number   4 out of a maximum of   27
 All quantities printed in internal units (Hartrees-Bohrs-Radians)
 Mixed Optimization -- RFO/linear search
 Update second derivatives using D2CorX and points    1    2    4    3
 DE=  1.14D-02 DEPred=-7.96D-04 R=-1.43D+01
 Trust test=-1.43D+01 RLast= 4.76D-01 DXMaxT set to 2.46D-01
 The second derivative matrix:
                          R1        R2        R3        R4        R5
           R1           0.09819
           R2           0.00740   0.34410
           R3           0.00738  -0.00119   0.34410
           R4           0.00746  -0.00119  -0.00119   0.34411
           R5          -0.02701   0.00737   0.00728   0.00766   0.18522
           A1          -0.01540   0.00139   0.00138   0.00137   0.01957
           A2          -0.01539   0.00133   0.00132   0.00129   0.01637
           A3          -0.01284   0.00118   0.00118   0.00129   0.01174
           A4           0.01253  -0.00097  -0.00096  -0.00097  -0.02359
           A5           0.00912  -0.00049  -0.00049  -0.00052  -0.01504
           A6           0.00897  -0.00045  -0.00045  -0.00047  -0.01286
           A7          -0.00980   0.00039   0.00038  -0.00036  -0.01648
           A8          -0.00001   0.00000   0.00000   0.00000  -0.00066
           D1           0.00255  -0.00051  -0.00050  -0.00059  -0.00988
           D2          -0.00354   0.00055   0.00054   0.00056   0.00676
           D3           0.00443  -0.00071  -0.00070  -0.00075  -0.00992
           D4           0.00797  -0.00127  -0.00124  -0.00131  -0.01668
                          A1        A2        A3        A4        A5
           A1           0.14604
           A2          -0.01396   0.14620
           A3          -0.01489  -0.01508   0.14975
           A4           0.01387   0.01390   0.01435   0.14597
           A5           0.01405   0.01391   0.01150  -0.01413   0.14786
           A6           0.01384   0.01361   0.01141  -0.01393  -0.01186
           A7           0.00550   0.00804  -0.01683  -0.00389   0.00499
           A8          -0.00003  -0.00002   0.00014   0.00003  -0.00008
           D1           0.00099   0.00154   0.00028  -0.00077  -0.00128
           D2          -0.00038  -0.00066  -0.00171   0.00028   0.00150
           D3           0.00072   0.00116   0.00199  -0.00055  -0.00199
           D4           0.00110   0.00182   0.00370  -0.00082  -0.00349
                          A6        A7        A8        D1        D2
           A6           0.14847
           A7           0.00354   0.11106
           A8          -0.00009  -0.00048   0.00231
           D1          -0.00158   0.00888   0.00002   0.00413
           D2           0.00165   0.00149  -0.00006  -0.00086   0.00319
           D3          -0.00223   0.00056   0.00007   0.00138  -0.00117
           D4          -0.00388  -0.00093   0.00013   0.00224  -0.00206
                          D3        D4
           D3           0.00389
           D4           0.00276   0.00711
 ITU= -1  1  1  0
 Use linear search instead of GDIIS.
     Eigenvalues ---    0.00230   0.04269   0.05083   0.07652   0.08303
     Eigenvalues ---    0.11583   0.15621   0.16252   0.19850   0.34326
     Eigenvalues ---    0.34530   0.34530
 RFO step:  Lambda=-2.60448762D-05 EMin= 2.30019356D-03
 Quartic linear search produced a step of -0.95313.
 Iteration  1 RMS(Cart)=  0.11089688 RMS(Int)=  0.04383226
 Iteration  2 RMS(Cart)=  0.09367914 RMS(Int)=  0.00688953
 Iteration  3 RMS(Cart)=  0.00804528 RMS(Int)=  0.00024608
 Iteration  4 RMS(Cart)=  0.00000431 RMS(Int)=  0.00024605
 Iteration  5 RMS(Cart)=  0.00000000 RMS(Int)=  0.00024605
 Variable       Old X    -DE/DX   Delta X   Delta X   Delta X     New X
                                 (Linear)    (Quad)   (Total)
    R1        3.85565   0.00363   0.02031   0.00577   0.02608   3.88173
    R2        2.07653   0.00012  -0.00330  -0.00006  -0.00336   2.07317
    R3        2.07656   0.00010  -0.00332  -0.00007  -0.00339   2.07317
    R4        2.07645   0.00049  -0.00323  -0.00004  -0.00327   2.07318
    R5        4.18413   0.03548   0.16101   0.01033   0.17134   4.35547
    A1        1.95948  -0.00327  -0.05238   0.00221  -0.05037   1.90912
    A2        1.96048  -0.00503  -0.05333   0.00199  -0.05148   1.90900
    A3        1.95791   0.00321  -0.05082   0.00226  -0.04855   1.90936
    A4        1.85990   0.00225   0.05412  -0.00241   0.05234   1.91223
    A5        1.85925   0.00117   0.05474  -0.00235   0.05279   1.91204
    A6        1.85954   0.00217   0.05446  -0.00233   0.05250   1.91204
    A7        3.50662  -0.04345  -0.36872   0.00671  -0.36202   3.14461
    A8        3.14411  -0.00000  -0.00054  -0.01134  -0.01187   3.13224
    D1        2.15266  -0.00569  -0.06270   0.00235  -0.06014   2.09252
    D2       -2.15061   0.00128   0.06072  -0.00256   0.05799  -2.09262
    D3        2.15205  -0.00280  -0.06209   0.00230  -0.05957   2.09248
    D4       -1.98052  -0.00408  -0.12281   0.00485  -0.11756  -2.09809
         Item               Value     Threshold  Converged?
 Maximum Force            0.043449     0.000450     NO 
 RMS     Force            0.013882     0.000300     NO 
 Maximum Displacement     0.423142     0.001800     NO 
 RMS     Displacement     0.194825     0.001200     NO 
 Predicted change in Energy=-4.121632D-04
 GradGradGradGradGradGradGradGradGradGradGradGradGradGradGradGradGradGrad

                          Input orientation:                          
 ---------------------------------------------------------------------
 Center     Atomic      Atomic             Coordinates (Angstroms)
 Number     Number       Type             X           Y           Z
 ---------------------------------------------------------------------
      1          6           0       -4.847235    1.614394    0.000086
      2         80           0       -3.394564    3.066689   -0.002715
      3          1           0       -4.616778    0.870351    0.772657
      4          1           0       -4.876494    1.126920   -0.982302
      5          1           0       -5.821012    2.073450    0.211312
      6         17           0       -1.758566    4.690166    0.000962
 ---------------------------------------------------------------------
                    Distance matrix (angstroms):
                    1          2          3          4          5
     1  C    0.000000
     2  Hg   2.054123   0.000000
     3  H    1.097076   2.630381   0.000000
     4  H    1.097075   2.630287   1.792529   0.000000
     5  H    1.097082   2.630585   1.792410   1.792414   0.000000
     6  Cl   4.358928   2.304817   4.832791   4.835804   4.836829
                    6
     6  Cl   0.000000
 Stoichiometry    CH3ClHg
 Framework group  C1[X(CH3ClHg)]
 Deg. of freedom    12
 Full point group                 C1      NOp   1
 Largest Abelian subgroup         C1      NOp   1
 Largest concise Abelian subgroup C1      NOp   1
                         Standard orientation:                         
 ---------------------------------------------------------------------
 Center     Atomic      Atomic             Coordinates (Angstroms)
 Number     Number       Type             X           Y           Z
 ---------------------------------------------------------------------
      1          6           0        2.239041    0.005002   -0.001217
      2         80           0        0.184927   -0.001151    0.000281
      3          1           0        2.600017    1.038470   -0.073431
      4          1           0        2.604150   -0.572459   -0.859591
      5          1           0        2.605458   -0.447760    0.928479
      6         17           0       -2.119886    0.002576   -0.000624
 ---------------------------------------------------------------------
 Rotational constants (GHZ):         156.0322513           2.0518386           2.0518303
 Standard basis: def2SVP (5D, 7F)
 There are    86 symmetry adapted cartesian basis functions of A   symmetry.
 There are    79 symmetry adapted basis functions of A   symmetry.
    79 basis functions,   148 primitive gaussians,    86 cartesian basis functions
    23 alpha electrons       23 beta electrons
       nuclear repulsion energy       148.5798586867 Hartrees.
 NAtoms=    6 NActive=    6 NUniq=    6 SFac= 1.00D+00 NAtFMM=   60 NAOKFM=F Big=F
 Integral buffers will be    131072 words long.
 Raffenetti 1 integral format.
 Two-electron integral symmetry is turned on.
 One-electron integrals computed using PRISM.
 PrsmSu:  requested number of processors reduced to:  13 ShMem   1 Linda.
   1 Symmetry operations used in ECPInt.
 ECPInt:  NShTT=     630 NPrTT=    2138 LenC2=     623 LenP2D=    1806.
 LDataN:  DoStor=T MaxTD1= 8 Len=  415
 NBasis=    79 RedAO= T EigKep=  8.37D-03  NBF=    79
 NBsUse=    79 1.00D-06 EigRej= -1.00D+00 NBFU=    79
 Lowest energy guess from the checkpoint file:  "ch3hgcl_gas_mp2.chk"
 B after Tr=     0.000000    0.000000   -0.000000
         Rot=    0.779391   -0.626538   -0.000031   -0.000021 Ang= -77.59 deg.
 B after Tr=    -0.000000   -0.000000    0.000000
         Rot=    1.000000   -0.000000   -0.000000    0.000000 Ang=  -0.00 deg.
 Keep R1 ints in memory in canonical form, NReq=16714635.
 Requested convergence on RMS density matrix=1.00D-08 within  32 cycles.
 Requested convergence on MAX density matrix=1.00D-06.
 Requested convergence on             energy=1.00D-06.
 No special actions if energy rises.
 SCF Done:  E(RHF) =  -651.478918652     A.U. after    9 cycles
            NFock=  9  Conv=0.57D-08     -V/T= 2.1850
 QCSCF skips out because SCF is already converged.
 ExpMin= 5.64D-02 ExpMax= 1.04D+04 ExpMxC= 1.57D+03 IAcc=3 IRadAn=         5 AccDes= 0.00D+00
 HarFok:  IExCor=  205 AccDes= 0.00D+00 IRadAn=         5 IDoV=-2 UseB2=F ITyADJ=14
 ICtDFT= 12500011 ScaDFX=  1.000000  1.000000  1.000000  1.000000
 Defaulting to unpruned grid for atomic number  80.
 Range of M.O.s used for correlation:     7    79
 NBasis=    79 NAE=    23 NBE=    23 NFC=     6 NFV=     0
[...]
     3   1     0.53  -0.03   0.21    -0.22  -0.51  -0.18    -0.22   0.52  -0.04
     4   1     0.53   0.20  -0.08     0.30   0.21   0.11    -0.08   0.23   0.68
     5   1     0.53  -0.17  -0.13    -0.08  -0.40   0.58     0.30  -0.24   0.06
     6  17    -0.00  -0.00  -0.00    -0.00  -0.00   0.00    -0.00   0.00   0.00
                     10                     11                     12
                      A                      A                      A
 Frequencies --   3116.9118              3249.5279              3249.5487
 Red. masses --      1.0308                 1.1061                 1.1061
 Frc consts  --      5.9002                 6.8814                 6.8815
 IR Inten    --      5.9351                 0.7687                 0.7685
  Atom  AN      X      Y      Z        X      Y      Z        X      Y      Z
     1   6     0.05  -0.00  -0.00    -0.00   0.06  -0.08    -0.00  -0.08  -0.06
     2  80    -0.00   0.00   0.00     0.00  -0.00   0.00     0.00   0.00   0.00
     3   1    -0.18  -0.08   0.54    -0.24  -0.09   0.67    -0.13  -0.07   0.36
     4   1    -0.18   0.51  -0.20     0.23  -0.61   0.23    -0.14   0.37  -0.16
     5   1    -0.18  -0.43  -0.34     0.01   0.03   0.00     0.27   0.60   0.47
     6  17     0.00  -0.00  -0.00     0.00   0.00  -0.00     0.00  -0.00  -0.00

 -------------------
 - Thermochemistry -
 -------------------
 Temperature   298.150 Kelvin.  Pressure   1.00000 Atm.
 Atom     1 has atomic number  6 and mass  12.00000
 Atom     2 has atomic number 80 and mass 201.97060
 Atom     3 has atomic number  1 and mass   1.00783
 Atom     4 has atomic number  1 and mass   1.00783
 Atom     5 has atomic number  1 and mass   1.00783
 Atom     6 has atomic number 17 and mass  34.96885
 Molecular mass:   251.96293 amu.
 Principal axes and moments of inertia in atomic units:
                           1         2         3
     Eigenvalues --    11.56663 878.06680 878.06681
           X            1.00000  -0.00000  -0.00001
           Y            0.00000   0.99995  -0.00976
           Z            0.00001   0.00976   0.99995
 This molecule is an asymmetric top.
 Rotational symmetry number  1.
 Rotational temperatures (Kelvin)      7.48826     0.09864     0.09864
 Rotational constants (GHZ):         156.02995     2.05536     2.05536
 Zero-point vibrational energy      99891.8 (Joules/Mol)
                                   23.87471 (Kcal/Mol)
 Warning -- explicit consideration of   4 degrees of freedom as
           vibrations may cause significant error
 Vibrational temperatures:    194.19   194.19   537.21   832.46  1200.78
          (Kelvin)           1200.80  1817.19  2108.17  2108.18  4484.54
                             4675.35  4675.38
 
 Zero-point correction=                           0.038047 (Hartree/Particle)
 Thermal correction to Energy=                    0.042890
 Thermal correction to Enthalpy=                  0.043834
 Thermal correction to Gibbs Free Energy=         0.008722
 Sum of electronic and zero-point Energies=           -652.100203
 Sum of electronic and thermal Energies=              -652.095360
 Sum of electronic and thermal Enthalpies=            -652.094416
 Sum of electronic and thermal Free Energies=         -652.129528
 
                     E (Thermal)             CV                S
                      KCal/Mol        Cal/Mol-Kelvin    Cal/Mol-Kelvin
 Total                   26.914             13.930             73.900
 Electronic               0.000              0.000              0.000
 Translational            0.889              2.981             42.473
 Rotational               0.889              2.981             23.704
 Vibrational             25.136              7.969              7.723
 Vibration     1          0.613              1.918              2.874
 Vibration     2          0.613              1.918              2.874
 Vibration     3          0.745              1.527              1.066
 Vibration     4          0.935              1.078              0.488
                       Q            Log10(Q)             Ln(Q)
 Total Bot       0.973325D-04         -4.011742         -9.237378
 Total V=0       0.307993D+14         13.488540         31.058512
 Vib (Bot)       0.183156D-16        -16.737178        -38.538776
 Vib (Bot)    1  0.150858D+01          0.178567          0.411167
 Vib (Bot)    2  0.150855D+01          0.178559          0.411147
 Vib (Bot)    3  0.486465D+00         -0.312948         -0.720590
 Vib (Bot)    4  0.263739D+00         -0.578826         -1.332796
 Vib (V=0)       0.579568D+01          0.763105          1.757114
 Vib (V=0)    1  0.208928D+01          0.319996          0.736819
 Vib (V=0)    2  0.208925D+01          0.319990          0.736805
 Vib (V=0)    3  0.119760D+01          0.078312          0.180321
 Vib (V=0)    4  0.106529D+01          0.027470          0.063252
 Electronic      0.100000D+01          0.000000          0.000000
 Translational   0.157202D+09          8.196459         18.873044
 Rotational      0.338047D+05          4.528977         10.428354
 ***** Axes restored to original set *****
 -------------------------------------------------------------------
 Center     Atomic                   Forces (Hartrees/Bohr)
 Number     Number              X              Y              Z
 -------------------------------------------------------------------
      1        6           0.000005641    0.000003283   -0.000002821
      2       80           0.000011345    0.000007870    0.000003797
      3        1          -0.000002144   -0.000003974    0.000001493
      4        1          -0.000003771   -0.000004179   -0.000001671
      5        1          -0.000004507    0.000000934    0.000000577
      6       17          -0.000006565   -0.000003933   -0.000001376
 -------------------------------------------------------------------
 Cartesian Forces:  Max     0.000011345 RMS     0.000004683
 FormGI is forming the generalized inverse of G from B-inverse, IUseBI=4.

 GradGradGradGradGradGradGradGradGradGradGradGradGradGradGradGradGradGrad
 Berny optimization.
 Internal  Forces:  Max     0.000007427 RMS     0.000003666
 Search for a local minimum.
 Step number   1 out of a maximum of    2
 All quantities printed in internal units (Hartrees-Bohrs-Radians)
 Second derivative matrix not updated -- analytic derivatives used.
 The second derivative matrix:
                          R1        R2        R3        R4        R5
           R1           0.17694
           R2           0.00188   0.36338
           R3           0.00188  -0.00085   0.36338
           R4           0.00188  -0.00085  -0.00085   0.36338
           R5           0.00483   0.00048   0.00048   0.00048   0.15995
           A1           0.00277  -0.00043  -0.00046  -0.00151   0.00079
           A2           0.00434  -0.00001   0.00003  -0.00378   0.00124
           A3           0.00848  -0.00333  -0.00333  -0.00072   0.00242
           A4          -0.00110   0.00343   0.00343  -0.00590  -0.00031
           A5          -0.00679   0.00629  -0.00571   0.00533  -0.00194
           A6          -0.00765  -0.00595   0.00604   0.00656  -0.00219
           A7          -0.00000   0.00021   0.00021  -0.00042  -0.00000
           A8           0.00000  -0.00014   0.00014  -0.00000   0.00000
           D1           0.00537   0.00155   0.00154  -0.00776   0.00153
           D2          -0.00443  -0.00128   0.00609  -0.00097  -0.00127
           D3           0.00583  -0.00569   0.00168  -0.00106   0.00167
           D4           0.01026  -0.00441  -0.00441  -0.00010   0.00293
                          A1        A2        A3        A4        A5
           A1           0.01728
           A2          -0.00781   0.03255
           A3          -0.01114  -0.01906   0.06341
           A4          -0.00792  -0.00140   0.02284   0.03640
           A5          -0.01237   0.02249  -0.03181  -0.02205   0.06999
           A6           0.02195  -0.02675  -0.02416  -0.02784  -0.02632
           A7           0.00555   0.00835  -0.01870  -0.00388   0.00509
           A8          -0.00318   0.00419  -0.00051   0.00035   0.00189
           D1           0.01154   0.00950  -0.01136   0.01167  -0.01483
           D2          -0.00679   0.00750  -0.00576   0.00917  -0.00811
           D3          -0.00298   0.01185   0.00073  -0.00473  -0.00800
           D4           0.00381   0.00435   0.00649  -0.01390   0.00011
                          A6        A7        A8        D1        D2
           A6           0.08303
           A7           0.00357   0.11474
           A8          -0.00274   0.00001   0.01780
           D1          -0.00649   0.00954  -0.00111   0.02707
           D2           0.00398   0.00154   0.00305   0.00188   0.01679
           D3           0.00316   0.00096   0.00315   0.00071   0.00809
           D4          -0.00082  -0.00058   0.00010  -0.00116  -0.00870
                          D3        D4
           D3           0.01688
           D4           0.00880   0.01750
 ITU=  0
     Eigenvalues ---    0.01592   0.03386   0.03854   0.05632   0.10083
     Eigenvalues ---    0.12500   0.13708   0.15867   0.18231   0.36205
     Eigenvalues ---    0.36491   0.36497
 Angle between quadratic step and forces=  46.93 degrees.
 Linear search not attempted -- first point.
 Iteration  1 RMS(Cart)=  0.00007204 RMS(Int)=  0.00000001
 Iteration  2 RMS(Cart)=  0.00000001 RMS(Int)=  0.00000000
 Variable       Old X    -DE/DX   Delta X   Delta X   Delta X     New X
                                 (Linear)    (Quad)   (Total)
    R1        3.87454   0.00001   0.00000   0.00002   0.00002   3.87456
    R2        2.07363   0.00000   0.00000   0.00001   0.00001   2.07364
    R3        2.07363   0.00000   0.00000   0.00001   0.00001   2.07364
    R4        2.07362   0.00000   0.00000   0.00002   0.00002   2.07364
    R5        4.35339  -0.00001   0.00000  -0.00005  -0.00005   4.35334
    A1        1.90933   0.00000   0.00000   0.00006   0.00006   1.90938
    A2        1.90933   0.00000   0.00000   0.00005   0.00005   1.90938
    A3        1.90941  -0.00000   0.00000  -0.00003  -0.00003   1.90938
    A4        1.91191  -0.00000   0.00000  -0.00003  -0.00003   1.91188
    A5        1.91191  -0.00000   0.00000  -0.00003  -0.00003   1.91188
    A6        1.91191  -0.00000   0.00000  -0.00003  -0.00003   1.91188
    A7        3.14167  -0.00001   0.00000  -0.00007  -0.00007   3.14159
    A8        3.14143   0.00000   0.00000   0.00017   0.00017   3.14159
    D1        2.09277   0.00000   0.00000   0.00009   0.00009   2.09286
    D2       -2.09282  -0.00000   0.00000  -0.00004  -0.00004  -2.09286
    D3        2.09283   0.00000   0.00000   0.00003   0.00003   2.09286
    D4       -2.09753   0.00000   0.00000   0.00007   0.00007  -2.09746
         Item               Value     Threshold  Converged?
 Maximum Force            0.000007     0.000450     YES
 RMS     Force            0.000004     0.000300     YES
 Maximum Displacement     0.000136     0.001800     YES
 RMS     Displacement     0.000072     0.001200     YES
 Predicted change in Energy=-1.271592D-09
 Optimization completed.
    -- Stationary point found.
                           ----------------------------
                           !   Optimized Parameters   !
                           ! (Angstroms and Degrees)  !
 --------------------------                            --------------------------
 ! Name  Definition              Value          Derivative Info.                !
 --------------------------------------------------------------------------------
 ! R1    R(1,2)                  2.0503         -DE/DX =    0.0                 !
 ! R2    R(1,3)                  1.0973         -DE/DX =    0.0                 !
 ! R3    R(1,4)                  1.0973         -DE/DX =    0.0                 !
 ! R4    R(1,5)                  1.0973         -DE/DX =    0.0                 !
 ! R5    R(2,6)                  2.3037         -DE/DX =    0.0                 !
 ! A1    A(2,1,3)              109.3963         -DE/DX =    0.0                 !
 ! A2    A(2,1,4)              109.3963         -DE/DX =    0.0                 !
 ! A3    A(2,1,5)              109.401          -DE/DX =    0.0                 !
 ! A4    A(3,1,4)              109.5443         -DE/DX =    0.0                 !
 ! A5    A(3,1,5)              109.5445         -DE/DX =    0.0                 !
 ! A6    A(4,1,5)              109.5446         -DE/DX =    0.0                 !
 ! A7    L(1,2,6,5,-1)         180.0043         -DE/DX =    0.0                 !
 ! A8    L(1,2,6,5,-2)         179.9905         -DE/DX =    0.0                 !
 ! D1    D(2,1,4,3)            119.9071         -DE/DX =    0.0                 !
 ! D2    D(2,1,5,3)           -119.91           -DE/DX =    0.0                 !
 ! D3    D(2,1,5,4)            119.9102         -DE/DX =    0.0                 !
 ! D4    D(3,1,5,4)           -120.1798         -DE/DX =    0.0                 !
 --------------------------------------------------------------------------------
 GradGradGradGradGradGradGradGradGradGradGradGradGradGradGradGradGradGrad


 ----------------------------------------------------------------------

 Electric dipole moment (input orientation):
 (Debye = 10**-18 statcoulomb cm , SI units = C m)
                  (au)            (Debye)         (10**-30 SI)
   Tot        0.134611D+01      0.342146D+01      0.114128D+02
   x         -0.953365D+00     -0.242321D+01     -0.808297D+01
   y         -0.950315D+00     -0.241546D+01     -0.805711D+01
   z          0.225449D-03      0.573033D-03      0.191143D-02

 Dipole polarizability, Alpha (input orientation).
 (esu units = cm**3 , SI units = C**2 m**2 J**-1)
 Alpha(0;0):
               (au)            (10**-24 esu)      (10**-40 SI)
   iso        0.495720D+02      0.734581D+01      0.817331D+01
   aniso      0.438539D+02      0.649847D+01      0.723053D+01
   xx         0.569503D+02      0.843917D+01      0.938984D+01
   yx         0.219268D+02      0.324922D+01      0.361525D+01
   yy         0.568115D+02      0.841860D+01      0.936696D+01
   zx        -0.583327D-02     -0.864402D-03     -0.961777D-03
   zy        -0.582175D-02     -0.862694D-03     -0.959877D-03
   zz         0.349540D+02      0.517965D+01      0.576314D+01

 ----------------------------------------------------------------------

 Dipole orientation:
     6         -6.09075867          6.10974296          4.33067049
    80         -6.09107634          6.10979670          0.45613353
     1         -4.13773261          6.21743680          5.01916312
     1         -6.97384906          4.36452944          5.01937224
     1         -7.16045327          7.74713446          5.01959067
    17         -6.09101742          6.10974279         -3.89725852

 Electric dipole moment (dipole orientation):
 (Debye = 10**-18 statcoulomb cm , SI units = C m)
                  (au)            (Debye)         (10**-30 SI)
   Tot        0.134611D+01      0.342146D+01      0.114128D+02
   x          0.000000D+00      0.000000D+00      0.000000D+00
   y          0.000000D+00      0.000000D+00      0.000000D+00
   z          0.134611D+01      0.342146D+01      0.114128D+02

 Dipole polarizability, Alpha (dipole orientation).
 (esu units = cm**3 , SI units = C**2 m**2 J**-1)
 Alpha(0;0):
               (au)            (10**-24 esu)      (10**-40 SI)
   iso        0.495720D+02      0.734581D+01      0.817331D+01
   aniso      0.438539D+02      0.649847D+01      0.723053D+01
   xx         0.349540D+02      0.517965D+01      0.576314D+01
   yx         0.218135D-04      0.323243D-05      0.359656D-05
   yy         0.349540D+02      0.517965D+01      0.576314D+01
   zx         0.123608D-02      0.183169D-03      0.203803D-03
   zy         0.299963D-04      0.444499D-05      0.494572D-05
   zz         0.788079D+02      0.116781D+02      0.129937D+02

 ----------------------------------------------------------------------

 Test job not archived.
 1\1\GINC-GRANADO-COMPUTE-9\Freq\RMP2-FC\def2SVP\C1H3Cl1Hg1\ROOT\13-Aug
 -2023\0\\#N Geom=AllCheck Guess=TCheck SCRF=Check Test GenChk RMP2(FC)
 /def2SVP Freq\\Optimization MeHgCl-apfd-def2svp-gas phase\\0,1\C,-4.84
 60069626,1.6154120293,0.0001738424\Hg,-3.3939914499,3.0629786707,-0.00
 02685298\H,-4.6173528788,0.8701329842,0.7724301004\H,-4.8753835666,1.1
 284185993,-0.9827184028\H,-5.8195331353,2.0757175907,0.2110354084\Cl,-
 1.7623810068,4.6893101258,-0.0006524186\\Version=EM64L-G16RevA.03\Stat
 e=1-A\HF=-651.4787606\MP2=-652.1382499\RMSD=5.421e-10\RMSF=4.683e-06\Z
 eroPoint=0.0380468\Thermal=0.0428897\Dipole=-0.953365,-0.9503152,0.000
 2254\DipoleDeriv=-0.0635251,0.086317,-0.0000299,0.0863393,-0.0640256,-
 0.0000268,-0.0000221,-0.000019,-0.1501073,0.8911097,0.5400277,-0.00013
 71,0.540006,0.8876362,-0.0001376,-0.0001303,-0.0001308,0.349355,0.0085
 952,-0.0837999,0.0211385,-0.038157,-0.0621769,0.0715104,-0.0150861,0.0
 35404,0.0259335,0.00212,-0.084082,-0.0438783,-0.0626251,-0.0309116,-0.
 0739414,0.0022168,-0.0279728,0.0011417,-0.0977455,-0.0086485,0.0227934
 ,-0.0757759,0.0071309,0.0024821,0.0129176,-0.0073854,0.0629778,-0.7405
 543,-0.4498143,0.0001134,-0.4497872,-0.737653,0.0001132,0.0001041,0.00
 0104,-0.2893007\Polar=56.9503354,21.9268361,56.811529,-0.0058333,-0.00
 58218,34.9540314\PG=C01 [X(C1H3Cl1Hg1)]\NImag=0\\0.45428907,-0.1098633
 0,0.45491995,0.00003024,0.00003351,0.56445804,-0.09158515,-0.05478280,
 0.00001690,0.18753732,-0.05477858,-0.09124613,0.00001671,0.14012921,0.
 18665678,0.00001534,0.00001515,-0.03663362,-0.00003780,-0.00003781,0.0
 4696727,-0.05073491,0.04320133,-0.03764006,0.00215182,-0.01185688,0.01
 191128,0.05626489,0.05259847,-0.18139215,0.14865205,0.00195076,-0.0095
 5270,0.00832026,-0.04841734,0.18806660,-0.04509692,0.14121976,-0.19422
 052,0.00095431,-0.00259993,0.00180574,0.04800567,-0.15250145,0.2031305
 0,-0.03958443,-0.00006327,-0.01492213,-0.00183201,-0.00731856,-0.01395
 968,-0.00128210,-0.00362764,-0.00581525,0.04193454,0.00435595,-0.10096
 723,-0.12631746,-0.00082496,-0.00732503,-0.01178989,0.00026504,0.01116
 669,0.02089072,0.00082690,0.10384070,-0.00543216,-0.11685405,-0.285796
 23,-0.00001579,0.00211442,0.00356207,0.00080073,-0.01220857,-0.0156457
 3,0.00651238,0.12642220,0.30168736,-0.27995329,0.12362487,0.05251539,-
 0.01103817,0.00393502,0.00205315,-0.00350175,-0.00031065,0.00266683,0.
 00292905,-0.00257424,-0.00254424,0.29208597,0.10980876,-0.08889768,-0.
 02238450,-0.01636426,0.00624883,0.00347460,0.01780803,-0.00752871,-0.0
 0698495,0.01166981,-0.00556188,0.00026166,-0.12244620,0.09938185,0.050
 48227,-0.02441563,-0.05750258,-0.00093420,0.00049006,-0.00080311,-0.02
 141629,0.00870548,0.00526932,0.02630127,-0.01067101,-0.00312806,-0.054
 47008,0.02612988,0.05599834,0.00756870,-0.00211682,-0.00000034,-0.0852
 3382,-0.07011021,0.00001771,-0.00289795,-0.00219361,-0.00071463,-0.002
 16505,-0.00204868,0.00067908,-0.00052182,-0.00047615,0.00003702,0.0832
 4994,-0.00212131,0.00758325,-0.00000031,-0.07010795,-0.08478176,0.0000
 1769,-0.00100018,-0.00075974,-0.00002415,-0.00148724,-0.00115325,0.000
 26434,-0.00222879,-0.00364241,-0.00023878,0.07694546,0.08275391,0.0000
 0124,0.00000126,0.00969491,0.00001658,0.00001656,-0.01489836,-0.001661
 33,-0.00096778,-0.00033931,0.00188341,0.00146545,-0.00067942,-0.000221
 05,-0.00049669,0.00016610,-0.00001885,-0.00001881,0.00605608\\-0.00000
 564,-0.00000328,0.00000282,-0.00001134,-0.00000787,-0.00000380,0.00000
 214,0.00000397,-0.00000149,0.00000377,0.00000418,0.00000167,0.00000451
 ,-0.00000093,-0.00000058,0.00000657,0.00000393,0.00000138\\\@


 In the race for quality, there is no finish line.
                               -- David T. Kearns
 Job cpu time:       0 days  1 hours 33 minutes 48.0 seconds.
 Elapsed time:       0 days  1 hours  2 minutes 48.7 seconds.
 File lengths (MBytes):  RWF=    545 Int=      0 D2E=      0 Chk=      3 Scr=      1
 Normal termination of Gaussian 16 at Sun Aug 13 03:35:07 2023.
