 Entering Gaussian System, Link 0=g16
 Input=input.gjf
 Output=input.log
 Initial command:
 /opt/ohpc/pub/apps/gaussian/G16x86_64_legacy_CPUs_linux_binary/g16/l1.exe "/tmp/Gau-58443.inp" -scrdir="/tmp/"
 Entering Link 1 = /opt/ohpc/pub/apps/gaussian/G16x86_64_legacy_CPUs_linux_binary/g16/l1.exe PID=     58447.
  
 Copyright (c) 1988,1990,1992,1993,1995,1998,2003,2009,2016,
            Gaussian, Inc.  All Rights Reserved.
  
 This is part of the Gaussian(R) 16 program.  It is based on
 the Gaussian(R) 09 system (copyright 2009, Gaussian, Inc.),
 the Gaussian(R) 03 system (copyright 2003, Gaussian, Inc.),
 the Gaussian(R) 98 system (copyright 1998, Gaussian, Inc.),
 the Gaussian(R) 94 system (copyright 1995, Gaussian, Inc.),
 the Gaussian 92(TM) system (copyright 1992, Gaussian, Inc.),
 the Gaussian 90(TM) system (copyright 1990, Gaussian, Inc.),
 the Gaussian 88(TM) system (copyright 1988, Gaussian, Inc.),
 the Gaussian 86(TM) system (copyright 1986, Carnegie Mellon
 University), and the Gaussian 82(TM) system (copyright 1983,
 Carnegie Mellon University). Gaussian is a federally registered
 trademark of Gaussian, Inc.
  
 This software contains proprietary and confidential information,
 including trade secrets, belonging to Gaussian, Inc.
  
 This software is provided under written license and may be
 used, copied, transmitted, or stored only in accord with that
 written license.
  
 The following legend is applicable only to US Government
 contracts under FAR:
  
                    RESTRICTED RIGHTS LEGEND
  
 Use, reproduction and disclosure by the US Government is
 subject to restrictions as set forth in subparagraphs (a)
 and (c) of the Commercial Computer Software - Restricted
 Rights clause in FAR 52.227-19.
  
 Gaussian, Inc.
 340 Quinnipiac St., Bldg. 40, Wallingford CT 06492
  
  
 ---------------------------------------------------------------
 Warning -- This program may not be used in any manner that
 competes with the business of Gaussian, Inc. or will provide
 assistance to any competitor of Gaussian, Inc.  The licensee
 of this program is prohibited from giving any competitor of
 Gaussian, Inc. access to this program.  By using this program,
 the user acknowledges that Gaussian, Inc. is engaged in the
 business of creating and licensing software in the field of
 computational chemistry and represents and warrants to the
 licensee that it is not a competitor of Gaussian, Inc. and that
 it will not use this program in any manner prohibited above.
 ---------------------------------------------------------------
  

 Cite this work as:
 Gaussian 16, Revision A.03,
 M. J. Frisch, G. W. Trucks, H. B. Schlegel, G. E. Scuseria, 
 M. A. Robb, J. R. Cheeseman, G. Scalmani, V. Barone, 
 G. A. Petersson, H. Nakatsuji, X. Li, M. Caricato, A. V. Marenich, 
 J. Bloino, B. G. Janesko, R. Gomperts, B. Mennucci, H. P. Hratchian, 
 J. V. Ortiz, A. F. Izmaylov, J. L. Sonnenberg, D. Williams-Young, 
 F. Ding, F. Lipparini, F. Egidi, J. Goings, B. Peng, A. Petrone, 
 T. Henderson, D. Ranasinghe, V. G. Zakrzewski, J. Gao, N. Rega, 
 G. Zheng, W. Liang, M. Hada, M. Ehara, K. Toyota, R. Fukuda, 
 J. Hasegawa, M. Ishida, T. Nakajima, Y. Honda, O. Kitao, H. Nakai, 
 T. Vreven, K. Throssell, J. A. Montgomery, Jr., J. E. Peralta, 
 F. Ogliaro, M. J. Bearpark, J. J. Heyd, E. N. Brothers, K. N. Kudin, 
 V. N. Staroverov, T. A. Keith, R. Kobayashi, J. Normand, 
 K. Raghavachari, A. P. Rendell, J. C. Burant, S. S. Iyengar, 
 J. Tomasi, M. Cossi, J. M. Millam, M. Klene, C. Adamo, R. Cammi, 
 J. W. Ochterski, R. L. Martin, K. Morokuma, O. Farkas, 
 J. B. Foresman, and D. J. Fox, Gaussian, Inc., Wallingford CT, 2016.
 
 ******************************************
 Gaussian 16:  EM64L-G16RevA.03 25-Dec-2016
                25-Aug-2022 
 ******************************************
 %NProcShared=24
 Will use up to   24 processors via shared memory.
 %Chk=ch3hg_gas_apfd.chk
 ----------------------
 #Opt Freq apfd/Def2SVP
 ----------------------
 1/18=20,19=15,26=3,38=1/1,3;
 2/9=110,12=2,17=6,18=5,40=1/2;
 3/5=43,7=101,11=2,25=1,30=1,71=1,74=-44/1,2,3;
 4//1;
 5/5=2,38=5/2;
 6/7=2,8=2,9=2,10=2,28=1/1;
 7//1,2,3,16;
 1/18=20,19=15,26=3/3(2);
 2/9=110/2;
 99//99;
 2/9=110/2;
 3/5=43,7=101,11=2,25=1,30=1,71=1,74=-44/1,2,3;
 4/5=5,16=3,69=1/1;
 5/5=2,38=5/2;
 7//1,2,3,16;
 1/18=20,19=15,26=3/3(-5);
 2/9=110/2;
 6/7=2,8=2,9=2,10=2,19=2,28=1/1;
 99/9=1/99;
 ----------------------------------------
 Optimization MeHg-adfd-def2svp-solvation
 ----------------------------------------
 Symbolic Z-matrix:
 Charge =  1 Multiplicity = 1
 C                    -4.90923   1.55094  -0.00079 
 Hg                   -3.34603   3.11247   0.001 
 H                    -4.66399   0.82398   0.77549 
 H                    -4.91664   1.07892  -0.98485 
 H                    -5.86789   2.02986   0.20616 
 

 GradGradGradGradGradGradGradGradGradGradGradGradGradGradGradGradGradGrad
 Berny optimization.
 Initialization pass.
                           ----------------------------
                           !    Initial Parameters    !
                           ! (Angstroms and Degrees)  !
 --------------------------                            --------------------------
 ! Name  Definition              Value          Derivative Info.                !
 --------------------------------------------------------------------------------
 ! R1    R(1,2)                  2.2095         estimate D2E/DX2                !
 ! R2    R(1,3)                  1.0914         estimate D2E/DX2                !
 ! R3    R(1,4)                  1.0914         estimate D2E/DX2                !
 ! R4    R(1,5)                  1.0914         estimate D2E/DX2                !
 ! A1    A(2,1,3)              108.1301         estimate D2E/DX2                !
 ! A2    A(2,1,4)              108.1301         estimate D2E/DX2                !
 ! A3    A(2,1,5)              108.1288         estimate D2E/DX2                !
 ! A4    A(3,1,4)              110.7783         estimate D2E/DX2                !
 ! A5    A(3,1,5)              110.779          estimate D2E/DX2                !
 ! A6    A(4,1,5)              110.7791         estimate D2E/DX2                !
 ! D1    D(2,1,4,3)            118.3234         estimate D2E/DX2                !
 ! D2    D(2,1,5,3)           -118.323          estimate D2E/DX2                !
 ! D3    D(2,1,5,4)            118.323          estimate D2E/DX2                !
 ! D4    D(3,1,5,4)           -123.354          estimate D2E/DX2                !
 --------------------------------------------------------------------------------
 Trust Radius=3.00D-01 FncErr=1.00D-07 GrdErr=1.00D-06 EigMax=2.50D+02 EigMin=1.00D-04
 Number of steps in this run=     24 maximum allowed number of steps=    100.
 GradGradGradGradGradGradGradGradGradGradGradGradGradGradGradGradGradGrad

                          Input orientation:                          
 ---------------------------------------------------------------------
 Center     Atomic      Atomic             Coordinates (Angstroms)
 Number     Number       Type             X           Y           Z
 ---------------------------------------------------------------------
      1          6           0       -4.909229    1.550937   -0.000794
      2         80           0       -3.346030    3.112469    0.001000
      3          1           0       -4.663989    0.823982    0.775486
      4          1           0       -4.916639    1.078924   -0.984851
      5          1           0       -5.867890    2.029856    0.206158
 ---------------------------------------------------------------------
                    Distance matrix (angstroms):
                    1          2          3          4          5
     1  C    0.000000
     2  Hg   2.209520   0.000000
     3  H    1.091429   2.752093   0.000000
     4  H    1.091430   2.752094   1.796556   0.000000
     5  H    1.091432   2.752075   1.796565   1.796567   0.000000
 This structure is nearly, but not quite of a higher symmetry.
 Consider Symm=Loose if the higher symmetry is desired.
 Stoichiometry    CH3Hg(1+)
 Framework group  C1[X(CH3Hg)]
 Deg. of freedom     9
 Full point group                 C1      NOp   1
 Largest Abelian subgroup         C1      NOp   1
 Largest concise Abelian subgroup C1      NOp   1
                         Standard orientation:                         
 ---------------------------------------------------------------------
 Center     Atomic      Atomic             Coordinates (Angstroms)
 Number     Number       Type             X           Y           Z
 ---------------------------------------------------------------------
      1          6           0       -0.188457    0.563998    1.882972
      2         80           0        0.022417   -0.067087   -0.223979
      3          1           0       -1.164127    1.039167    1.999157
      4          1           0        0.614426    1.268049    2.108607
      5          1           0       -0.112907   -0.324226    2.512714
 ---------------------------------------------------------------------
 Rotational constants (GHZ):         155.3629272           6.7872508           6.7872486
 Standard basis: def2SVP (5D, 7F)
 There are    67 symmetry adapted cartesian basis functions of A   symmetry.
 There are    61 symmetry adapted basis functions of A   symmetry.
    61 basis functions,   111 primitive gaussians,    67 cartesian basis functions
    14 alpha electrons       14 beta electrons
       nuclear repulsion energy        49.8876844411 Hartrees.
 NAtoms=    5 NActive=    5 NUniq=    5 SFac= 1.00D+00 NAtFMM=   60 NAOKFM=F Big=F
 Integral buffers will be    131072 words long.
 Raffenetti 2 integral format.
 Two-electron integral symmetry is turned on.
 R6APFD:  NTU= -4 IXU= 1 FactS= 1.050
 Nuclear repulsion after empirical dispersion term =       49.8781516730 Hartrees.
 One-electron integrals computed using PRISM.
 PrsmSu:  requested number of processors reduced to:  13 ShMem   1 Linda.
   1 Symmetry operations used in ECPInt.
 ECPInt:  NShTT=     378 NPrTT=    1116 LenC2=     379 LenP2D=    1058.
 LDataN:  DoStor=T MaxTD1= 8 Len=  415
 NBasis=    61 RedAO= T EigKep=  9.96D-03  NBF=    61
 NBsUse=    61 1.00D-06 EigRej= -1.00D+00 NBFU=    61
 Defaulting to unpruned grid for atomic number  80.
 ExpMin= 5.64D-02 ExpMax= 1.24D+03 ExpMxC= 1.86D+02 IAcc=3 IRadAn=         5 AccDes= 0.00D+00
 Harris functional with IExCor= 3731 and IRadAn=       5 diagonalized for initial guess.
 HarFok:  IExCor= 3731 AccDes= 0.00D+00 IRadAn=         5 IDoV= 1 UseB2=F ITyADJ=14
 ICtDFT=  3500011 ScaDFX=  1.000000  1.000000  1.000000  1.000000
 Defaulting to unpruned grid for atomic number  80.
 FoFCou: FMM=F IPFlag=           0 FMFlag=      100000 FMFlg1=           0
         NFxFlg=           0 DoJE=T BraDBF=F KetDBF=T FulRan=T
         wScrn=  0.000000 ICntrl=       500 IOpCl=  0 I1Cent=   200000004 NGrid=           0
         NMat0=    1 NMatS0=      1 NMatT0=    0 NMatD0=    1 NMtDS0=    0 NMtDT0=    0
 Petite list used in FoFCou.
 Keep R1 ints in memory in canonical form, NReq=23103219.
 Requested convergence on RMS density matrix=1.00D-08 within 128 cycles.
 Requested convergence on MAX density matrix=1.00D-06.
 Requested convergence on             energy=1.00D-06.
 No special actions if energy rises.
 Integral accuracy reduced to 1.0D-05 until final iterations.
 Defaulting to unpruned grid for atomic number  80.
 Defaulting to unpruned grid for atomic number  80.
 Defaulting to unpruned grid for atomic number  80.
 Defaulting to unpruned grid for atomic number  80.
 Defaulting to unpruned grid for atomic number  80.
 Defaulting to unpruned grid for atomic number  80.
 Defaulting to unpruned grid for atomic number  80.
 Defaulting to unpruned grid for atomic number  80.
 Defaulting to unpruned grid for atomic number  80.
 Defaulting to unpruned grid for atomic number  80.
 Defaulting to unpruned grid for atomic number  80.
 Defaulting to unpruned grid for atomic number  80.
 Defaulting to unpruned grid for atomic number  80.
 Defaulting to unpruned grid for atomic number  80.
 Defaulting to unpruned grid for atomic number  80.
 Defaulting to unpruned grid for atomic number  80.
 Defaulting to unpruned grid for atomic number  80.
 Defaulting to unpruned grid for atomic number  80.
 Defaulting to unpruned grid for atomic number  80.
 Defaulting to unpruned grid for atomic number  80.
 Defaulting to unpruned grid for atomic number  80.
 Defaulting to unpruned grid for atomic number  80.
 Defaulting to unpruned grid for atomic number  80.
 Defaulting to unpruned grid for atomic number  80.
 EnCoef did   100 forward-backward iterations
 Initial convergence to 1.0D-05 achieved.  Increase integral accuracy.
 SCF Done:  E(RAPFD) =  -193.060302211     A.U. after   14 cycles
            NFock= 14  Conv=0.78D-08     -V/T= 3.1417

 **********************************************************************

            Population analysis using the SCF density.

 **********************************************************************

 Orbital symmetries:
       Occupied  (A) (A) (A) (A) (A) (A) (A) (A) (A) (A) (A) (A)
                 (A) (A)
       Virtual   (A) (A) (A) (A) (A) (A) (A) (A) (A) (A) (A) (A)
                 (A) (A) (A) (A) (A) (A) (A) (A) (A) (A) (A) (A)
                 (A) (A) (A) (A) (A) (A) (A) (A) (A) (A) (A) (A)
                 (A) (A) (A) (A) (A) (A) (A) (A) (A) (A) (A)
 The electronic state is 1-A.
 Alpha  occ. eigenvalues --  -10.48234  -4.74886  -2.88636  -2.87622  -2.87622
 Alpha  occ. eigenvalues --   -0.93119  -0.72736  -0.72247  -0.72246  -0.70547
 Alpha  occ. eigenvalues --   -0.70547  -0.63654  -0.63654  -0.56274
 Alpha virt. eigenvalues --   -0.35340  -0.20014  -0.20014  -0.12102  -0.05837
 Alpha virt. eigenvalues --   -0.04047  -0.04047   0.00712   0.20327   0.20327
 Alpha virt. eigenvalues --    0.26057   0.26057   0.30812   0.38076   0.38076
 Alpha virt. eigenvalues --    0.38115   0.46811   0.47117   0.47118   0.50723
 Alpha virt. eigenvalues --    0.60230   0.60230   0.82376   0.99734   0.99734
 Alpha virt. eigenvalues --    1.26676   1.30418   1.30603   1.30603   1.31612
 Alpha virt. eigenvalues --    1.31612   1.32376   1.32382   1.54113   1.54113
 Alpha virt. eigenvalues --    1.61021   1.75290   1.75290   1.87405   1.96744
 Alpha virt. eigenvalues --    2.20155   2.20155   2.50876   2.68382   2.68383
 Alpha virt. eigenvalues --   32.93027 121.26637
          Condensed to atoms (all electrons):
               1          2          3          4          5
     1  C    4.815177   0.283853   0.387723   0.387723   0.387722
     2  Hg   0.283853  19.045508  -0.016294  -0.016294  -0.016295
     3  H    0.387723  -0.016294   0.467374  -0.009847  -0.009847
     4  H    0.387723  -0.016294  -0.009847   0.467374  -0.009847
     5  H    0.387722  -0.016295  -0.009847  -0.009847   0.467374
 Mulliken charges:
               1
     1  C   -0.262198
     2  Hg   0.719522
     3  H    0.180891
     4  H    0.180892
     5  H    0.180893
 Sum of Mulliken charges =   1.00000
 Mulliken charges with hydrogens summed into heavy atoms:
               1
     1  C    0.280478
     2  Hg   0.719522
 Electronic spatial extent (au):  <R**2>=            207.8777
 Charge=              1.0000 electrons
 Dipole moment (field-independent basis, Debye):
    X=             -0.1566    Y=              0.4686    Z=              1.5647  Tot=              1.6408
 Quadrupole moment (field-independent basis, Debye-Ang):
   XX=            -26.3321   YY=            -25.6061   ZZ=            -17.3151
   XY=             -0.2730   XZ=             -0.9116   YZ=              2.7281
 Traceless Quadrupole moment (field-independent basis, Debye-Ang):
   XX=             -3.2476   YY=             -2.5217   ZZ=              5.7693
   XY=             -0.2730   XZ=             -0.9116   YZ=              2.7281
 Octapole moment (field-independent basis, Debye-Ang**2):
  XXX=              1.9289  YYY=             -7.3081  ZZZ=             -9.4308  XYY=              0.9943
  XXY=             -1.2638  XXZ=             -7.7474  XZZ=             -0.5958  YZZ=              1.6066
  YYZ=             -6.0764  XYZ=             -0.4070
 Hexadecapole moment (field-independent basis, Debye-Ang**3):
 XXXX=            -31.2796 YYYY=            -44.0023 ZZZZ=           -141.2255 XXXY=              0.9928
 XXXZ=              5.7886 YYYX=              2.8097 YYYZ=            -19.9780 ZZZX=              4.5701
 ZZZY=            -14.9125 XXYY=            -11.0217 XXZZ=            -32.7745 YYZZ=            -30.4683
 XXYZ=             -4.2577 YYXZ=              2.7225 ZZXY=              0.1155
 N-N= 4.987815167296D+01 E-N=-5.044203720197D+02  KE= 9.014312760275D+01
 R6APFD:  NTU= -4 IXU= 1 FactS= 1.050
 PrsmSu:  requested number of processors reduced to:  13 ShMem   1 Linda.
   1 Symmetry operations used in ECPInt.
 ECPInt:  NShTT=     378 NPrTT=    1116 LenC2=     379 LenP2D=    1058.
 LDataN:  DoStor=T MaxTD1= 9 Len=  602
 Calling FoFJK, ICntrl=      2127 FMM=F ISym2X=0 I1Cent= 0 IOpClX= 0 NMat=1 NMatS=1 NMatT=0.
 Defaulting to unpruned grid for atomic number  80.
 Defaulting to unpruned grid for atomic number  80.
 Defaulting to unpruned grid for atomic number  80.
 Defaulting to unpruned grid for atomic number  80.
 Defaulting to unpruned grid for atomic number  80.
 Defaulting to unpruned grid for atomic number  80.
 Defaulting to unpruned grid for atomic number  80.
 Defaulting to unpruned grid for atomic number  80.
 Defaulting to unpruned grid for atomic number  80.
 Defaulting to unpruned grid for atomic number  80.
 Defaulting to unpruned grid for atomic number  80.
 Defaulting to unpruned grid for atomic number  80.
 Defaulting to unpruned grid for atomic number  80.
 Defaulting to unpruned grid for atomic number  80.
 Defaulting to unpruned grid for atomic number  80.
 Defaulting to unpruned grid for atomic number  80.
 Defaulting to unpruned grid for atomic number  80.
 Defaulting to unpruned grid for atomic number  80.
 Defaulting to unpruned grid for atomic number  80.
 Defaulting to unpruned grid for atomic number  80.
 Defaulting to unpruned grid for atomic number  80.
 Defaulting to unpruned grid for atomic number  80.
 Defaulting to unpruned grid for atomic number  80.
 Defaulting to unpruned grid for atomic number  80.
 ***** Axes restored to original set *****
 -------------------------------------------------------------------
 Center     Atomic                   Forces (Hartrees/Bohr)
 Number     Number              X              Y              Z
 -------------------------------------------------------------------
      1        6          -0.004293353   -0.004285324   -0.000004779
      2       80          -0.016489637   -0.016471081   -0.000021240
      3        1           0.010737540    0.003098861    0.006102786
      4        1           0.008753566    0.005099768   -0.007709943
      5        1           0.001291884    0.012557776    0.001633175
 -------------------------------------------------------------------
 Cartesian Forces:  Max     0.016489637 RMS     0.008431107

 GradGradGradGradGradGradGradGradGradGradGradGradGradGradGradGradGradGrad
 Berny optimization.
 FormGI is forming the generalized inverse of G from B-inverse, IUseBI=4.
 Internal  Forces:  Max     0.023306760 RMS     0.008304487
 Search for a local minimum.
 Step number   1 out of a maximum of   24
 All quantities printed in internal units (Hartrees-Bohrs-Radians)
 Mixed Optimization -- RFO/linear search
 Second derivative matrix not updated -- first step.
 The second derivative matrix:
                          R1        R2        R3        R4        A1
           R1           0.11699
           R2           0.00000   0.34648
           R3           0.00000   0.00000   0.34648
           R4           0.00000   0.00000   0.00000   0.34648
           A1           0.00000   0.00000   0.00000   0.00000   0.16000
           A2           0.00000   0.00000   0.00000   0.00000   0.00000
           A3           0.00000   0.00000   0.00000   0.00000   0.00000
           A4           0.00000   0.00000   0.00000   0.00000   0.00000
           A5           0.00000   0.00000   0.00000   0.00000   0.00000
           A6           0.00000   0.00000   0.00000   0.00000   0.00000
           D1           0.00000   0.00000   0.00000   0.00000   0.00000
           D2           0.00000   0.00000   0.00000   0.00000   0.00000
           D3           0.00000   0.00000   0.00000   0.00000   0.00000
           D4           0.00000   0.00000   0.00000   0.00000   0.00000
                          A2        A3        A4        A5        A6
           A2           0.16000
           A3           0.00000   0.16000
           A4           0.00000   0.00000   0.16000
           A5           0.00000   0.00000   0.00000   0.16000
           A6           0.00000   0.00000   0.00000   0.00000   0.16000
           D1           0.00000   0.00000   0.00000   0.00000   0.00000
           D2           0.00000   0.00000   0.00000   0.00000   0.00000
           D3           0.00000   0.00000   0.00000   0.00000   0.00000
           D4           0.00000   0.00000   0.00000   0.00000   0.00000
                          D1        D2        D3        D4
           D1           0.00230
           D2           0.00000   0.00230
           D3           0.00000   0.00000   0.00230
           D4           0.00000   0.00000   0.00000   0.00230
 ITU=  0
     Eigenvalues ---    0.04938   0.05614   0.08895   0.11699   0.16000
     Eigenvalues ---    0.16000   0.34648   0.34648   0.34648
 RFO step:  Lambda=-9.37585110D-03 EMin= 4.93844658D-02
 Linear search not attempted -- first point.
 Iteration  1 RMS(Cart)=  0.07618956 RMS(Int)=  0.00423609
 Iteration  2 RMS(Cart)=  0.00227507 RMS(Int)=  0.00357851
 Iteration  3 RMS(Cart)=  0.00000213 RMS(Int)=  0.00357851
 Iteration  4 RMS(Cart)=  0.00000000 RMS(Int)=  0.00357851
 Variable       Old X    -DE/DX   Delta X   Delta X   Delta X     New X
                                 (Linear)    (Quad)   (Total)
    R1        4.17539  -0.02331   0.00000  -0.18443  -0.18443   3.99095
    R2        2.06250   0.00469   0.00000   0.01318   0.01318   2.07568
    R3        2.06250   0.00469   0.00000   0.01317   0.01317   2.07567
    R4        2.06251   0.00469   0.00000   0.01317   0.01317   2.07567
    A1        1.88723  -0.00256   0.00000  -0.06345  -0.06097   1.82626
    A2        1.88723  -0.00405   0.00000  -0.06664  -0.06464   1.82258
    A3        1.88720  -0.00799   0.00000  -0.07029  -0.06951   1.81769
    A4        1.93345   0.00073   0.00000   0.05893   0.05072   1.98417
    A5        1.93346   0.00617   0.00000   0.06553   0.05955   1.99301
    A6        1.93346   0.00695   0.00000   0.06567   0.05989   1.99335
    D1        2.06513  -0.00515   0.00000  -0.08361  -0.08526   1.97987
    D2       -2.06513   0.00441   0.00000   0.08202   0.08400  -1.98112
    D3        2.06513  -0.00576   0.00000  -0.08582  -0.08823   1.97690
    D4       -2.15293  -0.01017   0.00000  -0.16783  -0.17223  -2.32517
         Item               Value     Threshold  Converged?
 Maximum Force            0.023307     0.000450     NO 
 RMS     Force            0.008304     0.000300     NO 
 Maximum Displacement     0.160935     0.001800     NO 
 RMS     Displacement     0.076363     0.001200     NO 
 Predicted change in Energy=-5.413870D-03
 GradGradGradGradGradGradGradGradGradGradGradGradGradGradGradGradGradGrad

                          Input orientation:                          
 ---------------------------------------------------------------------
 Center     Atomic      Atomic             Coordinates (Angstroms)
 Number     Number       Type             X           Y           Z
 ---------------------------------------------------------------------
      1          6           0       -4.923718    1.536687   -0.000279
      2         80           0       -3.431193    3.030869    0.000383
      3          1           0       -4.620134    0.840776    0.793466
      4          1           0       -4.876834    1.103516   -1.008567
      5          1           0       -5.851899    2.084320    0.211996
 ---------------------------------------------------------------------
                    Distance matrix (angstroms):
                    1          2          3          4          5
     1  C    0.000000
     2  Hg   2.111921   0.000000
     3  H    1.098402   2.615161   0.000000
     4  H    1.098399   2.612001   1.839089   0.000000
     5  H    1.098399   2.607787   1.844384   1.844587   0.000000
 Stoichiometry    CH3Hg(1+)
 Framework group  C1[X(CH3Hg)]
 Deg. of freedom     9
 Full point group                 C1      NOp   1
 Largest Abelian subgroup         C1      NOp   1
 Largest concise Abelian subgroup C1      NOp   1
                         Standard orientation:                         
 ---------------------------------------------------------------------
 Center     Atomic      Atomic             Coordinates (Angstroms)
 Number     Number       Type             X           Y           Z
 ---------------------------------------------------------------------
      1          6           0       -1.889146   -0.000687    0.000009
      2         80           0        0.222775    0.000049   -0.000020
      3          1           0       -2.166899    0.516619   -0.928287
      4          1           0       -2.162976    0.549305    0.910507
      5          1           0       -2.157218   -1.065697    0.019306
 ---------------------------------------------------------------------
 Rotational constants (GHZ):         147.6840297           7.4823137           7.4808367
 Standard basis: def2SVP (5D, 7F)
 There are    67 symmetry adapted cartesian basis functions of A   symmetry.
 There are    61 symmetry adapted basis functions of A   symmetry.
    61 basis functions,   111 primitive gaussians,    67 cartesian basis functions
    14 alpha electrons       14 beta electrons
       nuclear repulsion energy        51.7587491205 Hartrees.
 NAtoms=    5 NActive=    5 NUniq=    5 SFac= 1.00D+00 NAtFMM=   60 NAOKFM=F Big=F
 Integral buffers will be    131072 words long.
 Raffenetti 2 integral format.
 Two-electron integral symmetry is turned on.
 R6APFD:  NTU= -4 IXU= 1 FactS= 1.050
 Nuclear repulsion after empirical dispersion term =       51.7483344064 Hartrees.
 One-electron integrals computed using PRISM.
 PrsmSu:  requested number of processors reduced to:  13 ShMem   1 Linda.
   1 Symmetry operations used in ECPInt.
 ECPInt:  NShTT=     378 NPrTT=    1116 LenC2=     379 LenP2D=    1060.
 LDataN:  DoStor=T MaxTD1= 8 Len=  415
 NBasis=    61 RedAO= T EigKep=  9.78D-03  NBF=    61
 NBsUse=    61 1.00D-06 EigRej= -1.00D+00 NBFU=    61
 Defaulting to unpruned grid for atomic number  80.
 Initial guess from the checkpoint file:  "ch3hg_gas_apfd.chk"
 B after Tr=     0.000000    0.000000   -0.000000
         Rot=    0.726943   -0.139203    0.668933   -0.068594 Ang= -86.74 deg.
 ExpMin= 5.64D-02 ExpMax= 1.24D+03 ExpMxC= 1.86D+02 IAcc=2 IRadAn=         4 AccDes= 0.00D+00
 Harris functional with IExCor= 3731 and IRadAn=       4 diagonalized for initial guess.
 HarFok:  IExCor= 3731 AccDes= 0.00D+00 IRadAn=         4 IDoV= 1 UseB2=F ITyADJ=14
 ICtDFT=  3500011 ScaDFX=  1.000000  1.000000  1.000000  1.000000
 Defaulting to unpruned grid for atomic number  80.
 FoFCou: FMM=F IPFlag=           0 FMFlag=      100000 FMFlg1=           0
         NFxFlg=           0 DoJE=T BraDBF=F KetDBF=T FulRan=T
         wScrn=  0.000000 ICntrl=       500 IOpCl=  0 I1Cent=   200000004 NGrid=           0
         NMat0=    1 NMatS0=      1 NMatT0=    0 NMatD0=    1 NMtDS0=    0 NMtDT0=    0
 Petite list used in FoFCou.
 Keep R1 ints in memory in canonical form, NReq=23103219.
 Requested convergence on RMS density matrix=1.00D-08 within 128 cycles.
 Requested convergence on MAX density matrix=1.00D-06.
 Requested convergence on             energy=1.00D-06.
 No special actions if energy rises.
 Integral accuracy reduced to 1.0D-05 until final iterations.
 Defaulting to unpruned grid for atomic number  80.
 Defaulting to unpruned grid for atomic number  80.
 Defaulting to unpruned grid for atomic number  80.
 Defaulting to unpruned grid for atomic number  80.
 Defaulting to unpruned grid for atomic number  80.
 Defaulting to unpruned grid for atomic number  80.
 Defaulting to unpruned grid for atomic number  80.
 Defaulting to unpruned grid for atomic number  80.
 Defaulting to unpruned grid for atomic number  80.
 Defaulting to unpruned grid for atomic number  80.
 Defaulting to unpruned grid for atomic number  80.
 Defaulting to unpruned grid for atomic number  80.
 Defaulting to unpruned grid for atomic number  80.
 Defaulting to unpruned grid for atomic number  80.
 Defaulting to unpruned grid for atomic number  80.
 Defaulting to unpruned grid for atomic number  80.
 Defaulting to unpruned grid for atomic number  80.
 Defaulting to unpruned grid for atomic number  80.
 Defaulting to unpruned grid for atomic number  80.
 Defaulting to unpruned grid for atomic number  80.
 Defaulting to unpruned grid for atomic number  80.
 Defaulting to unpruned grid for atomic number  80.
 Defaulting to unpruned grid for atomic number  80.
 Defaulting to unpruned grid for atomic number  80.
 Initial convergence to 1.0D-05 achieved.  Increase integral accuracy.
 SCF Done:  E(RAPFD) =  -193.065435926     A.U. after   12 cycles
            NFock= 12  Conv=0.63D-08     -V/T= 3.1413
 R6APFD:  NTU= -4 IXU= 1 FactS= 1.050
 PrsmSu:  requested number of processors reduced to:  13 ShMem   1 Linda.
   1 Symmetry operations used in ECPInt.
 ECPInt:  NShTT=     378 NPrTT=    1116 LenC2=     379 LenP2D=    1060.
 LDataN:  DoStor=T MaxTD1= 9 Len=  602
 Calling FoFJK, ICntrl=      2127 FMM=F ISym2X=0 I1Cent= 0 IOpClX= 0 NMat=1 NMatS=1 NMatT=0.
 Defaulting to unpruned grid for atomic number  80.
 Defaulting to unpruned grid for atomic number  80.
 Defaulting to unpruned grid for atomic number  80.
 Defaulting to unpruned grid for atomic number  80.
 Defaulting to unpruned grid for atomic number  80.
 Defaulting to unpruned grid for atomic number  80.
 Defaulting to unpruned grid for atomic number  80.
 Defaulting to unpruned grid for atomic number  80.
 Defaulting to unpruned grid for atomic number  80.
 Defaulting to unpruned grid for atomic number  80.
 Defaulting to unpruned grid for atomic number  80.
 Defaulting to unpruned grid for atomic number  80.
 Defaulting to unpruned grid for atomic number  80.
 Defaulting to unpruned grid for atomic number  80.
 Defaulting to unpruned grid for atomic number  80.
 Defaulting to unpruned grid for atomic number  80.
 Defaulting to unpruned grid for atomic number  80.
 Defaulting to unpruned grid for atomic number  80.
 Defaulting to unpruned grid for atomic number  80.
 Defaulting to unpruned grid for atomic number  80.
 Defaulting to unpruned grid for atomic number  80.
 Defaulting to unpruned grid for atomic number  80.
 Defaulting to unpruned grid for atomic number  80.
 Defaulting to unpruned grid for atomic number  80.
 ***** Axes restored to original set *****
 -------------------------------------------------------------------
 Center     Atomic                   Forces (Hartrees/Bohr)
 Number     Number              X              Y              Z
 -------------------------------------------------------------------
      1        6          -0.007217178   -0.007623778   -0.000176606
      2       80           0.001538419    0.001258594    0.000046588
      3        1           0.001793235    0.002586803    0.000005529
      4        1           0.001665992    0.002443961    0.000266354
      5        1           0.002219532    0.001334420   -0.000141865
 -------------------------------------------------------------------
 Cartesian Forces:  Max     0.007623778 RMS     0.003051203

 GradGradGradGradGradGradGradGradGradGradGradGradGradGradGradGradGradGrad
 Berny optimization.
 Using GEDIIS/GDIIS optimizer.
 FormGI is forming the generalized inverse of G from B-inverse, IUseBI=4.
 Internal  Forces:  Max     0.002454435 RMS     0.001262090
 Search for a local minimum.
 Step number   2 out of a maximum of   24
 All quantities printed in internal units (Hartrees-Bohrs-Radians)
 Mixed Optimization -- RFO/linear search
 Update second derivatives using D2CorX and points    1    2
 DE= -5.13D-03 DEPred=-5.41D-03 R= 9.48D-01
 TightC=F SS=  1.41D+00  RLast= 3.30D-01 DXNew= 5.0454D-01 9.8929D-01
 Trust test= 9.48D-01 RLast= 3.30D-01 DXMaxT set to 5.05D-01
 The second derivative matrix:
                          R1        R2        R3        R4        A1
           R1           0.13103
           R2          -0.00436   0.34772
           R3          -0.00435   0.00124   0.34772
           R4          -0.00464   0.00131   0.00130   0.34785
           A1          -0.02147   0.00444   0.00444   0.00442   0.14829
           A2          -0.01914   0.00388   0.00387   0.00384  -0.01216
           A3          -0.01046   0.00183   0.00183   0.00175  -0.01234
           A4           0.02173  -0.00459  -0.00458  -0.00458   0.01002
           A5           0.01049  -0.00192  -0.00192  -0.00186   0.01068
           A6           0.00845  -0.00145  -0.00145  -0.00138   0.01059
           D1           0.01111  -0.00257  -0.00257  -0.00261   0.00060
           D2          -0.00888   0.00206   0.00206   0.00209  -0.00044
           D3           0.01238  -0.00287  -0.00286  -0.00291   0.00068
           D4           0.02127  -0.00492  -0.00492  -0.00501   0.00112
                          A2        A3        A4        A5        A6
           A2           0.14757
           A3          -0.01209   0.14976
           A4           0.01060   0.01133   0.15163
           A5           0.01055   0.00919  -0.00971   0.15180
           A6           0.01035   0.00867  -0.00975  -0.00780   0.15267
           D1           0.00121   0.00291   0.00012  -0.00225  -0.00260
           D2          -0.00093  -0.00230  -0.00013   0.00178   0.00206
           D3           0.00136   0.00326   0.00012  -0.00252  -0.00290
           D4           0.00230   0.00556   0.00025  -0.00429  -0.00496
                          D1        D2        D3        D4
           D1           0.00415
           D2          -0.00149   0.00351
           D3           0.00205  -0.00166   0.00458
           D4           0.00355  -0.00286   0.00394   0.00910
 ITU=  1  0
 Use linear search instead of GDIIS.
     Eigenvalues ---    0.04162   0.05799   0.09680   0.13052   0.16000
     Eigenvalues ---    0.16162   0.34648   0.34648   0.35067
 RFO step:  Lambda=-3.17123675D-04 EMin= 4.16209535D-02
 Quartic linear search produced a step of  0.06332.
 Iteration  1 RMS(Cart)=  0.00999478 RMS(Int)=  0.00054540
 Iteration  2 RMS(Cart)=  0.00019192 RMS(Int)=  0.00050885
 Iteration  3 RMS(Cart)=  0.00000001 RMS(Int)=  0.00050885
 Variable       Old X    -DE/DX   Delta X   Delta X   Delta X     New X
                                 (Linear)    (Quad)   (Total)
    R1        3.99095   0.00198  -0.01168   0.03015   0.01847   4.00943
    R2        2.07568  -0.00114   0.00083  -0.00429  -0.00345   2.07222
    R3        2.07567  -0.00114   0.00083  -0.00428  -0.00345   2.07223
    R4        2.07567  -0.00124   0.00083  -0.00459  -0.00376   2.07192
    A1        1.82626  -0.00074  -0.00386  -0.01749  -0.02100   1.80526
    A2        1.82258  -0.00086  -0.00409  -0.01533  -0.01915   1.80343
    A3        1.81769  -0.00107  -0.00440  -0.01219  -0.01655   1.80115
    A4        1.98417   0.00055   0.00321   0.01602   0.01810   2.00227
    A5        1.99301   0.00077   0.00377   0.00996   0.01281   2.00582
    A6        1.99335   0.00079   0.00379   0.00963   0.01254   2.00589
    D1        1.97987  -0.00113  -0.00540  -0.02230  -0.02800   1.95187
    D2       -1.98112   0.00116   0.00532   0.02349   0.02904  -1.95208
    D3        1.97690  -0.00129  -0.00559  -0.02105  -0.02696   1.94994
    D4       -2.32517  -0.00245  -0.01091  -0.04455  -0.05600  -2.38116
         Item               Value     Threshold  Converged?
 Maximum Force            0.002454     0.000450     NO 
 RMS     Force            0.001262     0.000300     NO 
 Maximum Displacement     0.019282     0.001800     NO 
 RMS     Displacement     0.009943     0.001200     NO 
 Predicted change in Energy=-1.949898D-04
 GradGradGradGradGradGradGradGradGradGradGradGradGradGradGradGradGradGrad

                          Input orientation:                          
 ---------------------------------------------------------------------
 Center     Atomic      Atomic             Coordinates (Angstroms)
 Number     Number       Type             X           Y           Z
 ---------------------------------------------------------------------
      1          6           0       -4.933748    1.526484   -0.000568
      2         80           0       -3.433436    3.026703    0.000641
      3          1           0       -4.613692    0.845477    0.797096
      4          1           0       -4.872456    1.108469   -1.012488
      5          1           0       -5.850445    2.089035    0.212318
 ---------------------------------------------------------------------
                    Distance matrix (angstroms):
                    1          2          3          4          5
     1  C    0.000000
     2  Hg   2.121697   0.000000
     3  H    1.096574   2.604822   0.000000
     4  H    1.096575   2.603235   1.846813   0.000000
     5  H    1.096411   2.601146   1.848773   1.848817   0.000000
 Stoichiometry    CH3Hg(1+)
 Framework group  C1[X(CH3Hg)]
 Deg. of freedom     9
 Full point group                 C1      NOp   1
 Largest Abelian subgroup         C1      NOp   1
 Largest concise Abelian subgroup C1      NOp   1
                         Standard orientation:                         
 ---------------------------------------------------------------------
 Center     Atomic      Atomic             Coordinates (Angstroms)
 Number     Number       Type             X           Y           Z
 ---------------------------------------------------------------------
      1          6           0       -1.898627   -0.000303    0.000003
      2         80           0        0.223069    0.000023   -0.000010
      3          1           0       -2.153468    0.524106   -0.928720
      4          1           0       -2.151512    0.543596    0.917990
      5          1           0       -2.148793   -1.067731    0.011491
 ---------------------------------------------------------------------
 Rotational constants (GHZ):         146.8135572           7.4459385           7.4453995
 Standard basis: def2SVP (5D, 7F)
 There are    67 symmetry adapted cartesian basis functions of A   symmetry.
 There are    61 symmetry adapted basis functions of A   symmetry.
    61 basis functions,   111 primitive gaussians,    67 cartesian basis functions
    14 alpha electrons       14 beta electrons
       nuclear repulsion energy        51.6726046717 Hartrees.
 NAtoms=    5 NActive=    5 NUniq=    5 SFac= 1.00D+00 NAtFMM=   60 NAOKFM=F Big=F
 Integral buffers will be    131072 words long.
 Raffenetti 2 integral format.
 Two-electron integral symmetry is turned on.
 R6APFD:  NTU= -4 IXU= 1 FactS= 1.050
 Nuclear repulsion after empirical dispersion term =       51.6621306536 Hartrees.
 One-electron integrals computed using PRISM.
 PrsmSu:  requested number of processors reduced to:  13 ShMem   1 Linda.
   1 Symmetry operations used in ECPInt.
 ECPInt:  NShTT=     378 NPrTT=    1116 LenC2=     379 LenP2D=    1060.
 LDataN:  DoStor=T MaxTD1= 8 Len=  415
 NBasis=    61 RedAO= T EigKep=  9.77D-03  NBF=    61
 NBsUse=    61 1.00D-06 EigRej= -1.00D+00 NBFU=    61
 Defaulting to unpruned grid for atomic number  80.
 Initial guess from the checkpoint file:  "ch3hg_gas_apfd.chk"
 B after Tr=     0.000000    0.000000   -0.000000
         Rot=    0.999994   -0.003583    0.000045    0.000104 Ang=  -0.41 deg.
 Keep R1 ints in memory in canonical form, NReq=23103219.
 Requested convergence on RMS density matrix=1.00D-08 within 128 cycles.
 Requested convergence on MAX density matrix=1.00D-06.
 Requested convergence on             energy=1.00D-06.
 No special actions if energy rises.
 Defaulting to unpruned grid for atomic number  80.
 Defaulting to unpruned grid for atomic number  80.
 Defaulting to unpruned grid for atomic number  80.
 Defaulting to unpruned grid for atomic number  80.
 Defaulting to unpruned grid for atomic number  80.
 Defaulting to unpruned grid for atomic number  80.
 Defaulting to unpruned grid for atomic number  80.
 Defaulting to unpruned grid for atomic number  80.
 Defaulting to unpruned grid for atomic number  80.
 Defaulting to unpruned grid for atomic number  80.
 Defaulting to unpruned grid for atomic number  80.
 Defaulting to unpruned grid for atomic number  80.
 Defaulting to unpruned grid for atomic number  80.
 Defaulting to unpruned grid for atomic number  80.
 Defaulting to unpruned grid for atomic number  80.
 Defaulting to unpruned grid for atomic number  80.
 Defaulting to unpruned grid for atomic number  80.
 Defaulting to unpruned grid for atomic number  80.
 Defaulting to unpruned grid for atomic number  80.
 Defaulting to unpruned grid for atomic number  80.
 Defaulting to unpruned grid for atomic number  80.
 Defaulting to unpruned grid for atomic number  80.
 Defaulting to unpruned grid for atomic number  80.
 Defaulting to unpruned grid for atomic number  80.
 SCF Done:  E(RAPFD) =  -193.065690052     A.U. after    8 cycles
            NFock=  8  Conv=0.70D-08     -V/T= 3.1412
 R6APFD:  NTU= -4 IXU= 1 FactS= 1.050
 PrsmSu:  requested number of processors reduced to:  13 ShMem   1 Linda.
   1 Symmetry operations used in ECPInt.
 ECPInt:  NShTT=     378 NPrTT=    1116 LenC2=     379 LenP2D=    1060.
 LDataN:  DoStor=T MaxTD1= 9 Len=  602
 Calling FoFJK, ICntrl=      2127 FMM=F ISym2X=0 I1Cent= 0 IOpClX= 0 NMat=1 NMatS=1 NMatT=0.
 Defaulting to unpruned grid for atomic number  80.
 Defaulting to unpruned grid for atomic number  80.
 Defaulting to unpruned grid for atomic number  80.
 Defaulting to unpruned grid for atomic number  80.
 Defaulting to unpruned grid for atomic number  80.
 Defaulting to unpruned grid for atomic number  80.
 Defaulting to unpruned grid for atomic number  80.
 Defaulting to unpruned grid for atomic number  80.
 Defaulting to unpruned grid for atomic number  80.
 Defaulting to unpruned grid for atomic number  80.
 Defaulting to unpruned grid for atomic number  80.
 Defaulting to unpruned grid for atomic number  80.
 Defaulting to unpruned grid for atomic number  80.
 Defaulting to unpruned grid for atomic number  80.
 Defaulting to unpruned grid for atomic number  80.
 Defaulting to unpruned grid for atomic number  80.
 Defaulting to unpruned grid for atomic number  80.
 Defaulting to unpruned grid for atomic number  80.
 Defaulting to unpruned grid for atomic number  80.
 Defaulting to unpruned grid for atomic number  80.
 Defaulting to unpruned grid for atomic number  80.
 Defaulting to unpruned grid for atomic number  80.
 Defaulting to unpruned grid for atomic number  80.
 Defaulting to unpruned grid for atomic number  80.
 ***** Axes restored to original set *****
 -------------------------------------------------------------------
 Center     Atomic                   Forces (Hartrees/Bohr)
 Number     Number              X              Y              Z
 -------------------------------------------------------------------
      1        6          -0.002819701   -0.003107819   -0.000102374
      2       80           0.000812243    0.000676587    0.000024338
      3        1           0.000778695    0.000882378    0.000169701
      4        1           0.000661902    0.000866983   -0.000104643
      5        1           0.000566861    0.000681871    0.000012978
 -------------------------------------------------------------------
 Cartesian Forces:  Max     0.003107819 RMS     0.001214873

 GradGradGradGradGradGradGradGradGradGradGradGradGradGradGradGradGradGrad
 Berny optimization.
 Using GEDIIS/GDIIS optimizer.
 FormGI is forming the generalized inverse of G from B-inverse, IUseBI=4.
 Internal  Forces:  Max     0.001052778 RMS     0.000487709
 Search for a local minimum.
 Step number   3 out of a maximum of   24
 All quantities printed in internal units (Hartrees-Bohrs-Radians)
 Mixed Optimization -- En-DIIS/RFO-DIIS
 Update second derivatives using D2CorX and points    1    2    3
 DE= -2.54D-04 DEPred=-1.95D-04 R= 1.30D+00
 TightC=F SS=  1.41D+00  RLast= 8.72D-02 DXNew= 8.4853D-01 2.6153D-01
 Trust test= 1.30D+00 RLast= 8.72D-02 DXMaxT set to 5.05D-01
 The second derivative matrix:
                          R1        R2        R3        R4        A1
           R1           0.12756
           R2          -0.00194   0.34782
           R3          -0.00194   0.00134   0.34781
           R4          -0.00207   0.00173   0.00173   0.34871
           A1          -0.01145  -0.00182  -0.00181  -0.00231   0.12756
           A2          -0.00999  -0.00139  -0.00138  -0.00174  -0.03108
           A3          -0.00191  -0.00222  -0.00221  -0.00237  -0.02989
           A4           0.01348   0.00074   0.00073   0.00117   0.02719
           A5           0.00406   0.00115   0.00115   0.00128   0.02385
           A6           0.00194   0.00158   0.00157   0.00170   0.02387
           D1           0.01197  -0.00116  -0.00116  -0.00075  -0.00142
           D2          -0.00943   0.00040   0.00040  -0.00005   0.00104
           D3           0.01325  -0.00108  -0.00109  -0.00058  -0.00141
           D4           0.02268  -0.00149  -0.00149  -0.00053  -0.00245
                          A2        A3        A4        A5        A6
           A2           0.13041
           A3          -0.02777   0.13588
           A4           0.02631   0.02598   0.13744
           A5           0.02232   0.01963  -0.02070   0.14395
           A6           0.02220   0.01913  -0.02085  -0.01567   0.14478
           D1          -0.00011   0.00266   0.00198  -0.00203  -0.00247
           D2          -0.00012  -0.00256  -0.00155   0.00193   0.00231
           D3           0.00007   0.00322   0.00207  -0.00245  -0.00295
           D4           0.00019   0.00578   0.00362  -0.00438  -0.00526
                          D1        D2        D3        D4
           D1           0.00621
           D2          -0.00369   0.00582
           D3           0.00455  -0.00430   0.00759
           D4           0.00824  -0.00781   0.00959   0.01970
 ITU=  1  1  0
 Use linear search instead of GDIIS.
     Eigenvalues ---    0.02764   0.05855   0.09893   0.12881   0.16000
     Eigenvalues ---    0.16338   0.34648   0.34648   0.35158
 RFO step:  Lambda=-3.95164785D-06 EMin= 2.76365909D-02
 Quartic linear search produced a step of  0.68497.
 Iteration  1 RMS(Cart)=  0.00677886 RMS(Int)=  0.00034370
 Iteration  2 RMS(Cart)=  0.00008637 RMS(Int)=  0.00033194
 Iteration  3 RMS(Cart)=  0.00000000 RMS(Int)=  0.00033194
 Variable       Old X    -DE/DX   Delta X   Delta X   Delta X     New X
                                 (Linear)    (Quad)   (Total)
    R1        4.00943   0.00105   0.01265   0.00356   0.01622   4.02564
    R2        2.07222  -0.00020  -0.00237   0.00128  -0.00109   2.07114
    R3        2.07223  -0.00020  -0.00236   0.00128  -0.00108   2.07114
    R4        2.07192  -0.00012  -0.00257   0.00184  -0.00074   2.07118
    A1        1.80526  -0.00030  -0.01439  -0.00063  -0.01479   1.79047
    A2        1.80343  -0.00033  -0.01312  -0.00009  -0.01304   1.79039
    A3        1.80115  -0.00037  -0.01133   0.00043  -0.01092   1.79022
    A4        2.00227   0.00021   0.01240   0.00030   0.01199   2.01426
    A5        2.00582   0.00026   0.00877  -0.00007   0.00808   2.01389
    A6        2.00589   0.00027   0.00859  -0.00002   0.00797   2.01386
    D1        1.95187  -0.00046  -0.01918  -0.00066  -0.02008   1.93179
    D2       -1.95208   0.00046   0.01989   0.00053   0.02054  -1.93153
    D3        1.94994  -0.00050  -0.01846   0.00014  -0.01851   1.93143
    D4       -2.38116  -0.00096  -0.03836  -0.00038  -0.03906  -2.42022
         Item               Value     Threshold  Converged?
 Maximum Force            0.001053     0.000450     NO 
 RMS     Force            0.000488     0.000300     NO 
 Maximum Displacement     0.013576     0.001800     NO 
 RMS     Displacement     0.006750     0.001200     NO 
 Predicted change in Energy=-4.896335D-05
 GradGradGradGradGradGradGradGradGradGradGradGradGradGradGradGradGradGrad

                          Input orientation:                          
 ---------------------------------------------------------------------
 Center     Atomic      Atomic             Coordinates (Angstroms)
 Number     Number       Type             X           Y           Z
 ---------------------------------------------------------------------
      1          6           0       -4.940800    1.519300   -0.000837
      2         80           0       -3.433642    3.024811    0.000910
      3          1           0       -4.609173    0.848442    0.799905
      4          1           0       -4.869683    1.111460   -1.015641
      5          1           0       -5.850479    2.092155    0.212663
 ---------------------------------------------------------------------
                    Distance matrix (angstroms):
                    1          2          3          4          5
     1  C    0.000000
     2  Hg   2.130279   0.000000
     3  H    1.095999   2.599393   0.000000
     4  H    1.096001   2.599327   1.852903   0.000000
     5  H    1.096021   2.599190   1.852705   1.852688   0.000000
 Stoichiometry    CH3Hg(1+)
 Framework group  C1[X(CH3Hg)]
 Deg. of freedom     9
 Full point group                 C1      NOp   1
 Largest Abelian subgroup         C1      NOp   1
 Largest concise Abelian subgroup C1      NOp   1
                         Standard orientation:                         
 ---------------------------------------------------------------------
 Center     Atomic      Atomic             Coordinates (Angstroms)
 Number     Number       Type             X           Y           Z
 ---------------------------------------------------------------------
      1          6           0       -1.906811    0.000003    0.000033
      2         80           0        0.223468    0.000000    0.000001
      3          1           0       -2.145631    0.944269    0.502570
      4          1           0       -2.145550   -0.907541    0.566236
      5          1           0       -2.145396   -0.036781   -1.069072
 ---------------------------------------------------------------------
 Rotational constants (GHZ):         146.0801259           7.4081642           7.4081082
 Standard basis: def2SVP (5D, 7F)
 There are    67 symmetry adapted cartesian basis functions of A   symmetry.
 There are    61 symmetry adapted basis functions of A   symmetry.
    61 basis functions,   111 primitive gaussians,    67 cartesian basis functions
    14 alpha electrons       14 beta electrons
       nuclear repulsion energy        51.5716027079 Hartrees.
 NAtoms=    5 NActive=    5 NUniq=    5 SFac= 1.00D+00 NAtFMM=   60 NAOKFM=F Big=F
 Integral buffers will be    131072 words long.
 Raffenetti 2 integral format.
 Two-electron integral symmetry is turned on.
 R6APFD:  NTU= -4 IXU= 1 FactS= 1.050
 Nuclear repulsion after empirical dispersion term =       51.5611044908 Hartrees.
 One-electron integrals computed using PRISM.
 PrsmSu:  requested number of processors reduced to:  13 ShMem   1 Linda.
   1 Symmetry operations used in ECPInt.
 ECPInt:  NShTT=     378 NPrTT=    1116 LenC2=     379 LenP2D=    1060.
 LDataN:  DoStor=T MaxTD1= 8 Len=  415
 NBasis=    61 RedAO= T EigKep=  9.76D-03  NBF=    61
 NBsUse=    61 1.00D-06 EigRej= -1.00D+00 NBFU=    61
 Defaulting to unpruned grid for atomic number  80.
 Initial guess from the checkpoint file:  "ch3hg_gas_apfd.chk"
 B after Tr=     0.000000   -0.000000   -0.000000
         Rot=    0.715483   -0.698630   -0.000032    0.000095 Ang= -88.63 deg.
 Keep R1 ints in memory in canonical form, NReq=23103219.
 Requested convergence on RMS density matrix=1.00D-08 within 128 cycles.
 Requested convergence on MAX density matrix=1.00D-06.
 Requested convergence on             energy=1.00D-06.
 No special actions if energy rises.
 Defaulting to unpruned grid for atomic number  80.
 Defaulting to unpruned grid for atomic number  80.
 Defaulting to unpruned grid for atomic number  80.
 Defaulting to unpruned grid for atomic number  80.
 Defaulting to unpruned grid for atomic number  80.
 Defaulting to unpruned grid for atomic number  80.
 Defaulting to unpruned grid for atomic number  80.
 Defaulting to unpruned grid for atomic number  80.
 Defaulting to unpruned grid for atomic number  80.
 Defaulting to unpruned grid for atomic number  80.
 Defaulting to unpruned grid for atomic number  80.
 Defaulting to unpruned grid for atomic number  80.
 Defaulting to unpruned grid for atomic number  80.
 Defaulting to unpruned grid for atomic number  80.
 Defaulting to unpruned grid for atomic number  80.
 Defaulting to unpruned grid for atomic number  80.
 Defaulting to unpruned grid for atomic number  80.
 Defaulting to unpruned grid for atomic number  80.
 Defaulting to unpruned grid for atomic number  80.
 Defaulting to unpruned grid for atomic number  80.
 Defaulting to unpruned grid for atomic number  80.
 Defaulting to unpruned grid for atomic number  80.
 Defaulting to unpruned grid for atomic number  80.
 Defaulting to unpruned grid for atomic number  80.
 SCF Done:  E(RAPFD) =  -193.065741308     A.U. after    8 cycles
            NFock=  8  Conv=0.72D-08     -V/T= 3.1412
 R6APFD:  NTU= -4 IXU= 1 FactS= 1.050
 PrsmSu:  requested number of processors reduced to:  13 ShMem   1 Linda.
   1 Symmetry operations used in ECPInt.
 ECPInt:  NShTT=     378 NPrTT=    1116 LenC2=     379 LenP2D=    1060.
 LDataN:  DoStor=T MaxTD1= 9 Len=  602
 Calling FoFJK, ICntrl=      2127 FMM=F ISym2X=0 I1Cent= 0 IOpClX= 0 NMat=1 NMatS=1 NMatT=0.
 Defaulting to unpruned grid for atomic number  80.
 Defaulting to unpruned grid for atomic number  80.
 Defaulting to unpruned grid for atomic number  80.
 Defaulting to unpruned grid for atomic number  80.
 Defaulting to unpruned grid for atomic number  80.
 Defaulting to unpruned grid for atomic number  80.
 Defaulting to unpruned grid for atomic number  80.
 Defaulting to unpruned grid for atomic number  80.
 Defaulting to unpruned grid for atomic number  80.
 Defaulting to unpruned grid for atomic number  80.
 Defaulting to unpruned grid for atomic number  80.
 Defaulting to unpruned grid for atomic number  80.
 Defaulting to unpruned grid for atomic number  80.
 Defaulting to unpruned grid for atomic number  80.
 Defaulting to unpruned grid for atomic number  80.
 Defaulting to unpruned grid for atomic number  80.
 Defaulting to unpruned grid for atomic number  80.
 Defaulting to unpruned grid for atomic number  80.
 Defaulting to unpruned grid for atomic number  80.
 Defaulting to unpruned grid for atomic number  80.
 Defaulting to unpruned grid for atomic number  80.
 Defaulting to unpruned grid for atomic number  80.
 Defaulting to unpruned grid for atomic number  80.
 Defaulting to unpruned grid for atomic number  80.
 ***** Axes restored to original set *****
 -------------------------------------------------------------------
 Center     Atomic                   Forces (Hartrees/Bohr)
 Number     Number              X              Y              Z
 -------------------------------------------------------------------
      1        6          -0.000049629    0.000014577    0.000003949
      2       80           0.000017864    0.000007207    0.000000860
      3        1           0.000015757   -0.000009272   -0.000005770
      4        1           0.000014694   -0.000013192   -0.000000542
      5        1           0.000001315    0.000000679    0.000001503
 -------------------------------------------------------------------
 Cartesian Forces:  Max     0.000049629 RMS     0.000015969

 GradGradGradGradGradGradGradGradGradGradGradGradGradGradGradGradGradGrad
 Berny optimization.
 Using GEDIIS/GDIIS optimizer.
 FormGI is forming the generalized inverse of G from B-inverse, IUseBI=4.
 Internal  Forces:  Max     0.000019595 RMS     0.000010056
 Search for a local minimum.
 Step number   4 out of a maximum of   24
 All quantities printed in internal units (Hartrees-Bohrs-Radians)
 Mixed Optimization -- En-DIIS/RFO-DIIS
 Swapping is turned off.
 Update second derivatives using D2CorX and points    1    2    3    4
 DE= -5.13D-05 DEPred=-4.90D-05 R= 1.05D+00
 TightC=F SS=  1.41D+00  RLast= 6.12D-02 DXNew= 8.4853D-01 1.8347D-01
 Trust test= 1.05D+00 RLast= 6.12D-02 DXMaxT set to 5.05D-01
 The second derivative matrix:
                          R1        R2        R3        R4        A1
           R1           0.11601
           R2          -0.00105   0.34812
           R3          -0.00105   0.00163   0.34811
           R4          -0.00182   0.00219   0.00219   0.34934
           A1           0.00219  -0.00515  -0.00514  -0.00560   0.12458
           A2           0.00062  -0.00405  -0.00403  -0.00441  -0.03298
           A3           0.00465  -0.00414  -0.00413  -0.00442  -0.02987
           A4           0.00204   0.00338   0.00337   0.00377   0.02981
           A5          -0.00073   0.00256   0.00255   0.00279   0.02357
           A6          -0.00259   0.00298   0.00297   0.00322   0.02334
           D1           0.00663  -0.00004  -0.00004   0.00025  -0.00012
           D2          -0.00377  -0.00085  -0.00085  -0.00120   0.00003
           D3           0.00694   0.00024   0.00024   0.00061  -0.00003
           D4           0.01070   0.00109   0.00109   0.00181  -0.00006
                          A2        A3        A4        A5        A6
           A2           0.12935
           A3          -0.02739   0.13682
           A4           0.02789   0.02565   0.13497
           A5           0.02179   0.01866  -0.02029   0.14486
           A6           0.02148   0.01810  -0.02017  -0.01470   0.14579
           D1           0.00089   0.00272   0.00014  -0.00219  -0.00242
           D2          -0.00086  -0.00235   0.00007   0.00190   0.00205
           D3           0.00109   0.00309   0.00003  -0.00250  -0.00274
           D4           0.00195   0.00544  -0.00004  -0.00439  -0.00479
                          D1        D2        D3        D4
           D1           0.00536
           D2          -0.00286   0.00505
           D3           0.00342  -0.00321   0.00613
           D4           0.00629  -0.00596   0.00704   0.01530
 ITU=  1  1  1  0
     Eigenvalues ---    0.02604   0.05916   0.10038   0.11777   0.16000
     Eigenvalues ---    0.16181   0.34645   0.34648   0.35278
 En-DIIS/RFO-DIIS/Sim-DIIS IScMMF=       -3 using points:     4    3
 RFO step:  Lambda=-1.06660041D-08.
 DidBck=F Rises=F RFO-DIIS coefs:    1.00418   -0.00418
 Iteration  1 RMS(Cart)=  0.00007932 RMS(Int)=  0.00000056
 Iteration  2 RMS(Cart)=  0.00000001 RMS(Int)=  0.00000056
 Variable       Old X    -DE/DX   Delta X   Delta X   Delta X     New X
                                 (Linear)    (Quad)   (Total)
    R1        4.02564   0.00002   0.00007   0.00012   0.00018   4.02583
    R2        2.07114   0.00001  -0.00000   0.00002   0.00002   2.07115
    R3        2.07114   0.00001  -0.00000   0.00002   0.00002   2.07116
    R4        2.07118  -0.00000  -0.00000  -0.00000  -0.00000   2.07118
    A1        1.79047  -0.00000  -0.00006  -0.00007  -0.00013   1.79034
    A2        1.79039  -0.00001  -0.00005  -0.00002  -0.00007   1.79032
    A3        1.79022   0.00000  -0.00005   0.00009   0.00005   1.79027
    A4        2.01426  -0.00002   0.00005  -0.00018  -0.00013   2.01414
    A5        2.01389   0.00001   0.00003   0.00007   0.00011   2.01400
    A6        2.01386   0.00001   0.00003   0.00010   0.00013   2.01399
    D1        1.93179  -0.00002  -0.00008  -0.00016  -0.00025   1.93154
    D2       -1.93153  -0.00000   0.00009  -0.00000   0.00008  -1.93145
    D3        1.93143   0.00000  -0.00008   0.00008  -0.00000   1.93143
    D4       -2.42022   0.00000  -0.00016   0.00008  -0.00008  -2.42030
         Item               Value     Threshold  Converged?
 Maximum Force            0.000020     0.000450     YES
 RMS     Force            0.000010     0.000300     YES
 Maximum Displacement     0.000154     0.001800     YES
 RMS     Displacement     0.000079     0.001200     YES
 Predicted change in Energy=-6.833716D-09
 Optimization completed.
    -- Stationary point found.
                           ----------------------------
                           !   Optimized Parameters   !
                           ! (Angstroms and Degrees)  !
 --------------------------                            --------------------------
 ! Name  Definition              Value          Derivative Info.                !
 --------------------------------------------------------------------------------
 ! R1    R(1,2)                  2.1303         -DE/DX =    0.0                 !
 ! R2    R(1,3)                  1.096          -DE/DX =    0.0                 !
 ! R3    R(1,4)                  1.096          -DE/DX =    0.0                 !
 ! R4    R(1,5)                  1.096          -DE/DX =    0.0                 !
 ! A1    A(2,1,3)              102.5863         -DE/DX =    0.0                 !
 ! A2    A(2,1,4)              102.5819         -DE/DX =    0.0                 !
 ! A3    A(2,1,5)              102.5721         -DE/DX =    0.0                 !
 ! A4    A(3,1,4)              115.4087         -DE/DX =    0.0                 !
 ! A5    A(3,1,5)              115.3877         -DE/DX =    0.0                 !
 ! A6    A(4,1,5)              115.3859         -DE/DX =    0.0                 !
 ! D1    D(2,1,4,3)            110.6833         -DE/DX =    0.0                 !
 ! D2    D(2,1,5,3)           -110.6688         -DE/DX =    0.0                 !
 ! D3    D(2,1,5,4)            110.6628         -DE/DX =    0.0                 !
 ! D4    D(3,1,5,4)           -138.6684         -DE/DX =    0.0                 !
 --------------------------------------------------------------------------------
 GradGradGradGradGradGradGradGradGradGradGradGradGradGradGradGradGradGrad

                          Input orientation:                          
 ---------------------------------------------------------------------
 Center     Atomic      Atomic             Coordinates (Angstroms)
 Number     Number       Type             X           Y           Z
 ---------------------------------------------------------------------
      1          6           0       -4.940800    1.519300   -0.000837
      2         80           0       -3.433642    3.024811    0.000910
      3          1           0       -4.609173    0.848442    0.799905
      4          1           0       -4.869683    1.111460   -1.015641
      5          1           0       -5.850479    2.092155    0.212663
 ---------------------------------------------------------------------
                    Distance matrix (angstroms):
                    1          2          3          4          5
     1  C    0.000000
     2  Hg   2.130279   0.000000
     3  H    1.095999   2.599393   0.000000
     4  H    1.096001   2.599327   1.852903   0.000000
     5  H    1.096021   2.599190   1.852705   1.852688   0.000000
 Stoichiometry    CH3Hg(1+)
 Framework group  C1[X(CH3Hg)]
 Deg. of freedom     9
 Full point group                 C1      NOp   1
 Largest Abelian subgroup         C1      NOp   1
 Largest concise Abelian subgroup C1      NOp   1
                         Standard orientation:                         
 ---------------------------------------------------------------------
 Center     Atomic      Atomic             Coordinates (Angstroms)
 Number     Number       Type             X           Y           Z
 ---------------------------------------------------------------------
      1          6           0       -1.906811    0.000003    0.000033
      2         80           0        0.223468    0.000000    0.000001
      3          1           0       -2.145631    0.944269    0.502570
      4          1           0       -2.145550   -0.907541    0.566236
      5          1           0       -2.145396   -0.036781   -1.069072
 ---------------------------------------------------------------------
 Rotational constants (GHZ):         146.0801259           7.4081642           7.4081082

 **********************************************************************

            Population analysis using the SCF density.

 **********************************************************************

 Orbital symmetries:
       Occupied  (A) (A) (A) (A) (A) (A) (A) (A) (A) (A) (A) (A)
                 (A) (A)
       Virtual   (A) (A) (A) (A) (A) (A) (A) (A) (A) (A) (A) (A)
                 (A) (A) (A) (A) (A) (A) (A) (A) (A) (A) (A) (A)
                 (A) (A) (A) (A) (A) (A) (A) (A) (A) (A) (A) (A)
                 (A) (A) (A) (A) (A) (A) (A) (A) (A) (A) (A)
 The electronic state is 1-A.
 Alpha  occ. eigenvalues --  -10.48840  -4.74941  -2.88803  -2.87617  -2.87617
 Alpha  occ. eigenvalues --   -0.94253  -0.72909  -0.72908  -0.72779  -0.70521
 Alpha  occ. eigenvalues --   -0.70521  -0.64566  -0.64562  -0.55968
 Alpha virt. eigenvalues --   -0.34412  -0.19907  -0.19907  -0.12248  -0.05634
 Alpha virt. eigenvalues --   -0.04687  -0.04684   0.01185   0.21427   0.21427
 Alpha virt. eigenvalues --    0.26107   0.26107   0.27194   0.35428   0.36103
 Alpha virt. eigenvalues --    0.36112   0.46682   0.46683   0.47865   0.50803
 Alpha virt. eigenvalues --    0.60012   0.60013   0.87802   1.02001   1.02008
 Alpha virt. eigenvalues --    1.26689   1.27395   1.30437   1.30439   1.31704
 Alpha virt. eigenvalues --    1.31705   1.32458   1.32468   1.50306   1.50310
 Alpha virt. eigenvalues --    1.66845   1.79694   1.82121   1.82134   1.92653
 Alpha virt. eigenvalues --    2.15581   2.15597   2.56533   2.65569   2.65584
 Alpha virt. eigenvalues --   32.93506 121.26837
          Condensed to atoms (all electrons):
               1          2          3          4          5
     1  C    4.813275   0.289388   0.386525   0.386523   0.386513
     2  Hg   0.289388  19.086598  -0.020738  -0.020741  -0.020745
     3  H    0.386525  -0.020738   0.460286  -0.009034  -0.009042
     4  H    0.386523  -0.020741  -0.009034   0.460294  -0.009042
     5  H    0.386513  -0.020745  -0.009042  -0.009042   0.460332
 Mulliken charges:
               1
     1  C   -0.262223
     2  Hg   0.686237
     3  H    0.192002
     4  H    0.192000
     5  H    0.191984
 Sum of Mulliken charges =   1.00000
 Mulliken charges with hydrogens summed into heavy atoms:
               1
     1  C    0.313763
     2  Hg   0.686237
 Electronic spatial extent (au):  <R**2>=            195.3334
 Charge=              1.0000 electrons
 Dipole moment (field-independent basis, Debye):
    X=             -1.6240    Y=             -0.0001    Z=             -0.0002  Tot=              1.6240
 Quadrupole moment (field-independent basis, Debye-Ang):
   XX=            -17.7650   YY=            -26.2812   ZZ=            -26.2823
   XY=             -0.0000   XZ=              0.0001   YZ=              0.0000
 Traceless Quadrupole moment (field-independent basis, Debye-Ang):
   XX=              5.6778   YY=             -2.8384   ZZ=             -2.8395
   XY=             -0.0000   XZ=              0.0001   YZ=              0.0000
 Octapole moment (field-independent basis, Debye-Ang**2):
  XXX=             12.2679  YYY=              0.1273  ZZZ=             -1.2314  XYY=              7.1267
  XXY=              0.0002  XXZ=              0.0000  XZZ=              7.1293  YZZ=             -0.1274
  YYZ=              1.2308  XYZ=             -0.0001
 Hexadecapole moment (field-independent basis, Debye-Ang**3):
 XXXX=           -151.4686 YYYY=            -30.3725 ZZZZ=            -30.3731 XXXY=             -0.0010
 XXXZ=             -0.0012 YYYX=             -0.2834 YYYZ=             -0.0001 ZZZX=              2.7394
 ZZZY=              0.0001 XXYY=            -30.8742 XXZZ=            -30.8805 YYZZ=            -10.1247
 XXYZ=              0.0002 YYXZ=             -2.7387 ZZXY=              0.2835
 N-N= 5.156110449076D+01 E-N=-5.077223279620D+02  KE= 9.016853858079D+01
 1\1\GINC-GRANADO-COMPUTE-1\FOpt\RAPFD\def2SVP\C1H3Hg1(1+)\ROOT\25-Aug-
 2022\0\\#Opt Freq apfd/Def2SVP\\Optimization MeHg-adfd-def2svp-solvati
 on\\1,1\C,-4.9407996204,1.5193001826,-0.0008371112\Hg,-3.4336422214,3.
 0248110186,0.0009095044\H,-4.6091729533,0.8484424659,0.7999049784\H,-4
 .8696829566,1.1114595369,-1.0156409989\H,-5.8504792483,2.092154796,0.2
 126626273\\Version=EM64L-G16RevA.03\State=1-A\HF=-193.0657413\RMSD=7.1
 63e-09\RMSF=1.597e-05\Dipole=-0.4521217,-0.4514769,-0.0005219\Quadrupo
 le=1.0588004,1.0514937,-2.110294,3.1661675,0.0037629,0.0034913\PG=C01 
 [X(C1H3Hg1)]\\@


 Everything starts as somebody's daydream.
                           -- Larry Niven
 Job cpu time:       0 days  0 hours 32 minutes 36.7 seconds.
 Elapsed time:       0 days  0 hours 31 minutes  7.2 seconds.
 File lengths (MBytes):  RWF=      6 Int=      0 D2E=      0 Chk=      2 Scr=      1
 Normal termination of Gaussian 16 at Thu Aug 25 06:27:22 2022.
 Link1:  Proceeding to internal job step number  2.
 ------------------------------------------------------------------
 #N Geom=AllCheck Guess=TCheck SCRF=Check GenChk RAPFD/def2SVP Freq
 ------------------------------------------------------------------
 1/10=4,29=7,30=1,38=1,40=1/1,3;
 2/12=2,40=1/2;
 3/5=43,7=101,11=2,14=-4,25=1,30=1,70=2,71=2,74=-44,116=1,140=1/1,2,3;
 4/5=101/1;
 5/5=2,38=6,98=1/2;
 8/6=4,10=90,11=11/1;
 11/6=1,8=1,9=11,15=111,16=1/1,2,10;
 10/6=1/2;
 6/7=2,8=2,9=2,10=2,28=1/1;
 7/8=1,10=1,25=1/1,2,3,16;
 1/10=4,30=1/3;
 99//99;
 Structure from the checkpoint file:  "ch3hg_gas_apfd.chk"
 ----------------------------------------
 Optimization MeHg-adfd-def2svp-solvation
 ----------------------------------------
 Charge =  1 Multiplicity = 1
 Redundant internal coordinates found in file.  (old form).
 C,0,-4.9407996204,1.5193001826,-0.0008371112
 Hg,0,-3.4336422214,3.0248110186,0.0009095044
 H,0,-4.6091729533,0.8484424659,0.7999049784
 H,0,-4.8696829566,1.1114595369,-1.0156409989
 H,0,-5.8504792483,2.092154796,0.2126626273
 Recover connectivity data from disk.

 GradGradGradGradGradGradGradGradGradGradGradGradGradGradGradGradGradGrad
 Berny optimization.
 Initialization pass.
                           ----------------------------
                           !    Initial Parameters    !
                           ! (Angstroms and Degrees)  !
 --------------------------                            --------------------------
 ! Name  Definition              Value          Derivative Info.                !
 --------------------------------------------------------------------------------
 ! R1    R(1,2)                  2.1303         calculate D2E/DX2 analytically  !
 ! R2    R(1,3)                  1.096          calculate D2E/DX2 analytically  !
 ! R3    R(1,4)                  1.096          calculate D2E/DX2 analytically  !
 ! R4    R(1,5)                  1.096          calculate D2E/DX2 analytically  !
 ! A1    A(2,1,3)              102.5863         calculate D2E/DX2 analytically  !
 ! A2    A(2,1,4)              102.5819         calculate D2E/DX2 analytically  !
 ! A3    A(2,1,5)              102.5721         calculate D2E/DX2 analytically  !
 ! A4    A(3,1,4)              115.4087         calculate D2E/DX2 analytically  !
 ! A5    A(3,1,5)              115.3877         calculate D2E/DX2 analytically  !
 ! A6    A(4,1,5)              115.3859         calculate D2E/DX2 analytically  !
 ! D1    D(2,1,4,3)            110.6833         calculate D2E/DX2 analytically  !
 ! D2    D(2,1,5,3)           -110.6688         calculate D2E/DX2 analytically  !
 ! D3    D(2,1,5,4)            110.6628         calculate D2E/DX2 analytically  !
 ! D4    D(3,1,5,4)           -138.6684         calculate D2E/DX2 analytically  !
 --------------------------------------------------------------------------------
 Trust Radius=3.00D-01 FncErr=1.00D-07 GrdErr=1.00D-07 EigMax=2.50D+02 EigMin=1.00D-04
 Number of steps in this run=      2 maximum allowed number of steps=      2.
 GradGradGradGradGradGradGradGradGradGradGradGradGradGradGradGradGradGrad

                          Input orientation:                          
 ---------------------------------------------------------------------
 Center     Atomic      Atomic             Coordinates (Angstroms)
 Number     Number       Type             X           Y           Z
 ---------------------------------------------------------------------
      1          6           0       -4.940800    1.519300   -0.000837
      2         80           0       -3.433642    3.024811    0.000910
      3          1           0       -4.609173    0.848442    0.799905
      4          1           0       -4.869683    1.111460   -1.015641
      5          1           0       -5.850479    2.092155    0.212663
 ---------------------------------------------------------------------
                    Distance matrix (angstroms):
                    1          2          3          4          5
     1  C    0.000000
     2  Hg   2.130279   0.000000
     3  H    1.095999   2.599393   0.000000
     4  H    1.096001   2.599327   1.852903   0.000000
     5  H    1.096021   2.599190   1.852705   1.852688   0.000000
 Stoichiometry    CH3Hg(1+)
 Framework group  C1[X(CH3Hg)]
 Deg. of freedom     9
 Full point group                 C1      NOp   1
 Largest Abelian subgroup         C1      NOp   1
 Largest concise Abelian subgroup C1      NOp   1
                         Standard orientation:                         
 ---------------------------------------------------------------------
 Center     Atomic      Atomic             Coordinates (Angstroms)
 Number     Number       Type             X           Y           Z
 ---------------------------------------------------------------------
      1          6           0       -1.906811    0.000003    0.000033
      2         80           0        0.223468    0.000000    0.000001
      3          1           0       -2.145631    0.944269    0.502570
      4          1           0       -2.145550   -0.907541    0.566236
      5          1           0       -2.145396   -0.036781   -1.069072
 ---------------------------------------------------------------------
 Rotational constants (GHZ):         146.0801259           7.4081642           7.4081082
 Standard basis: def2SVP (5D, 7F)
 There are    67 symmetry adapted cartesian basis functions of A   symmetry.
 There are    61 symmetry adapted basis functions of A   symmetry.
    61 basis functions,   111 primitive gaussians,    67 cartesian basis functions
    14 alpha electrons       14 beta electrons
       nuclear repulsion energy        51.5716027079 Hartrees.
 NAtoms=    5 NActive=    5 NUniq=    5 SFac= 1.00D+00 NAtFMM=   60 NAOKFM=F Big=F
 Integral buffers will be    131072 words long.
 Raffenetti 2 integral format.
 Two-electron integral symmetry is turned on.
 R6APFD:  NTU= -4 IXU= 1 FactS= 1.050
 Nuclear repulsion after empirical dispersion term =       51.5611044908 Hartrees.
 One-electron integrals computed using PRISM.
 PrsmSu:  requested number of processors reduced to:  13 ShMem   1 Linda.
   1 Symmetry operations used in ECPInt.
 ECPInt:  NShTT=     378 NPrTT=    1116 LenC2=     379 LenP2D=    1060.
 LDataN:  DoStor=T MaxTD1= 8 Len=  415
 NBasis=    61 RedAO= T EigKep=  9.76D-03  NBF=    61
 NBsUse=    61 1.00D-06 EigRej= -1.00D+00 NBFU=    61
 Defaulting to unpruned grid for atomic number  80.
 SCF restart from the checkpoint file:  "ch3hg_gas_apfd.chk"
 B after Tr=     0.000000   -0.000000   -0.000000
         Rot=    1.000000   -0.000000   -0.000000    0.000000 Ang= Keep R1 ints Keep R1 ints in memory in canonical form, NReq=23103219.
 Requested convergence on RMS density matrix=1.00D-08 within 128 cycles.
 Requested convergence on MAX density matrix=1.00D-06.
 Requested convergence on             energy=1.00D-06.
 No special actions if energy rises.
 Defaulting to unpruned grid for atomic number  80.
 Defaulting to unpruned grid for atomic number  80.
 Defaulting to unpruned grid for atomic number  80.
 Defaulting to unpruned grid for atomic number  80.
 Defaulting to unpruned grid for atomic number  80.
 Defaulting to unpruned grid for atomic number  80.
 Defaulting to unpruned grid for atomic number  80.
 Defaulting to unpruned grid for atomic number  80.
 Defaulting to unpruned grid for atomic number  80.
 Defaulting to unpruned grid for atomic number  80.
 Defaulting to unpruned grid for atomic number  80.
 Defaulting to unpruned grid for atomic number  80.
 Defaulting to unpruned grid for atomic number  80.
 Defaulting to unpruned grid for atomic number  80.
 Defaulting to unpruned grid for atomic number  80.
 Defaulting to unpruned grid for atomic number  80.
 Defaulting to unpruned grid for atomic number  80.
 Defaulting to unpruned grid for atomic number  80.
 Defaulting to unpruned grid for atomic number  80.
 Defaulting to unpruned grid for atomic number  80.
 Defaulting to unpruned grid for atomic number  80.
 Defaulting to unpruned grid for atomic number  80.
 Defaulting to unpruned grid for atomic number  80.
 Defaulting to unpruned grid for atomic number  80.
 SCF Done:  E(RAPFD) =  -193.065741308     A.U. after    2 cycles
            NFock=  2  Conv=0.89D-08     -V/T= 3.1412
 DoSCS=F DFT=T ScalE2(SS,OS)=  1.000000  1.000000
 Range of M.O.s used for correlation:     1    61
 NBasis=    61 NAE=    14 NBE=    14 NFC=     0 NFV=     0
 NROrb=     61 NOA=    14 NOB=    14 NVA=    47 NVB=    47
 PrsmSu:  requested number of processors reduced to:  13 ShMem   1 Linda.
   1 Symmetry operations used in ECPInt.
 ECPInt:  NShTT=     378 NPrTT=    1116 LenC2=     379 LenP2D= R R6APFD:  NTU= -4 IXU= 1 FactS= 1.05 S Symmetri R6APFD:  NTU= -4 IXU= 1 FactS= 1.050
 Symmetrizing basis deriv contribution to polar:
 IMax=3 JMax=2 DiffMx= 0.00D+00
 G2DrvN: will do     6 centers at a time, making    1 passes.
 Calling FoFCou, ICntrl=  3107 FMM=F I1Cent=   0 AccDes= 0.00D+00.
 Defaulting to unpruned grid for atomic number  80.
 Defaulting to unpruned grid for atomic number  80.
 Defaulting to unpruned grid for atomic number  80.
 Defaulting to unpruned grid for atomic number  80.
 Defaulting to unpruned grid for atomic number  80.
 Defaulting to unpruned grid for atomic number  80.
 Defaulting to unpruned grid for atomic number  80.
 Defaulting to unpruned grid for atomic number  80.
 Defaulting to unpruned grid for atomic number  80.
 Defaulting to unpruned grid for atomic number  80.
 Defaulting to unpruned grid for atomic number  80.
 Defaulting to unpruned grid for atomic number  80.
 Defaulting to unpruned grid for atomic number  80.
 Defaulting to unpruned grid for atomic number  80.
 Defaulting to unpruned grid for atomic number  80.
 Defaulting to unpruned grid for atomic number  80.
 Defaulting to unpruned grid for atomic number  80.
 Defaulting to unpruned grid for atomic number  80.
 Defaulting to unpruned grid for atomic number  80.
 Defaulting to unpruned grid for atomic number  80.
 Defaulting to unpruned grid for atomic number  80.
 Defaulting to unpruned grid for atomic number  80.
 Defaulting to unpruned grid for atomic number  80.
 Defa End of G2Drv F.D. properties file   721 does n End of G2Drv F.D. properties file   721 does not exist.
 End of G2Drv F.D. properties file   722 does not exist.
 End of G2Drv F.D. properties file   788 does not exist.
          IDoAtm=11111
          Differentiating once with respect to electric field.
                with respect to dipole field.
[...]
 Defaulting to unpruned grid for atomic number  80.
 Defaulting to unpruned grid for atomic number  80.
 Defaulting to unpruned grid for atomic number  80.
 Defaulting to unpruned grid for atomic number  80.
 Defaulting to unpruned grid for atomic number  80.
 Defaulting to unpruned grid for atomic number  80.
 Defaulting to unpruned grid for atomic number  80.
 Defaulting to unpruned grid for atomic number  80.
 Defaulting to unpruned grid for atomic number  80 F Full mass-weighted force constant matrix:
 Low frequencies ---   -6.8188   -3.8814    0.0005    0.0005    0.0006    6.7080
 Low frequencies ---  492.1480  823.9604  823.9940
 Diagonal vibrational polarizability:
        5.4392528       0.9321333       0.9327056
 Harmonic frequencies (cm**-1), IR intensities (KM/Mole), Raman scattering
 activities (A**4/AMU), depolarization ratios for plane and unpolarized
 incident light, reduced masses (AMU), force constants (mDyne/A),
 and normal coordinates:
                      1                      2                      3
                      A                      A                      A
 Frequencies --    492.1480               823.9604               823.9940
 Red. masses --      4.8329                 1.0906                 1.0906
 Frc consts  --      0.6897                 0.4362                 0.4363
 IR Inten    --     35.3768                17.3825                17.3725
  Atom  AN      X      Y      Z        X      Y      Z        X      Y      Z
     1   6     0.56  -0.00  -0.00     0.00   0.03   0.08    -0.00   0.08  -0.03
     2  80    -0.04   0.00   0.00    -0.00  -0.00  -0.00    -0.00  -0.00   0.00
     3   1     0.48  -0.02  -0.01    -0.59  -0.00  -0.13    -0.53  -0.11   0.08
     4   1     0.48   0.02  -0.01    -0.16  -0.07  -0.15     0.77  -0.09   0.02
     5   1     0.48   0.00   0.02     0.75  -0.05  -0.08    -0.25  -0.16   0.03
                      4                      5                      6
                      A                      A                      A
 Frequencies --   1183.7626              1393.9747              1394.1446
 Red. masses --      1.1623                 1.0753                 1.0752
 Frc consts  --      0.9596                 1.2310                 1.2313
 IR Inten    --     75.0881                10.4400                10.4342
  Atom  AN      X      Y      Z        X      Y      Z        X      Y      Z
     1   6    -0.12  -0.00   0.00     0.00   0.00  -0.08     0.00  -0.08  -0.00
     2  80    -0.00  -0.00  -0.00    -0.00   0.00  -0.00    -0.00  -0.00  -0.00
     3   1     0.56   0.12   0.07    -0.10  -0.37   0.59    -0.20   0.07  -0.35
     4   1     0.56  -0.12   0.07    -0.12   0.40   0.51     0.18   0.14   0.42
     5   1     0.56  -0.00  -0.14     0.22  -0.05  -0.12     0.01   0.77  -0.03
                      7                      8                      9
                      A                      A                      A
 Frequencies --   3085.3234              3268.9416              3269.1377
 Red. masses --      1.0179                 1.1164                 1.1165
 Frc consts  --      5.7088                 7.0291                 7.0302
 IR Inten    --     23.5616                39.3258                39.3777
  Atom  AN      X      Y      Z        X      Y      Z        X      Y      Z
     1   6    -0.03  -0.00  -0.00     0.00  -0.00  -0.10     0.00  -0.10   0.00
     2  80     0.00  -0.00  -0.00    -0.00   0.00   0.00    -0.00   0.00  -0.00
     3   1     0.12  -0.50  -0.27    -0.08   0.34   0.17    -0.15   0.61   0.33
     4   1     0.12   0.48  -0.30    -0.09  -0.35   0.21     0.15   0.57  -0.36
     5   1     0.12   0.02   0.56     0.17   0.03   0.79     0.00  -0.01   0.02

 -------------------
 - Thermochemistry -
 -------------------
 Temperature   298.150 Kelvin.  Pressure   1.00000 Atm.
 Atom     1 has atomic number  6 and mass  12.00000
 Atom     2 has atomic number 80 and mass 201.97060
 Atom     3 has atomic number  1 and mass   1.00783
 Atom     4 has atomic number  1 and mass   1.00783
 Atom     5 has atomic number  1 and mass   1.00783
 Molecular mass:   216.99408 amu.
 Principal axes and moments of inertia in atomic units:
                           1         2         3
     Eigenvalues --    12.35446 243.61517 243.61701
           X            1.00000   0.00000   0.00001
           Y           -0.00000   1.00000  -0.00000
           Z           -0.00001   0.00000   1.00000
 This molecule is an asymmetric top.
 Rotational symmetry number  1.
 Rotational temperatures (Kelvin)      7.01074     0.35554     0.35553
 Rotational constants (GHZ):         146.08013     7.40816     7.40811
 Zero-point vibrational energy      94118.5 (Joules/Mol)
                                   22.49487 (Kcal/Mol)
 Warning -- explicit consideration of   1 degrees of freedom as
           vibrations may cause significant error
 Vibrational temperatures:    708.09  1185.50  1185.54  1703.17  2005.62
          (Kelvin)           2005.86  4439.09  4703.28  4703.56
 
 Zero-point correction=                           0.035848 (Hartree/Particle)
 Thermal correction to Energy=                    0.039087
 Thermal correction to Enthalpy=                  0.040031
 Thermal correction to Gibbs Free Energy=         0.009440
 Sum of electronic and zero-point Energies=           -193.029893
 Sum of electronic and thermal Energies=              -193.026654
 Sum of electronic and thermal Enthalpies=            -193.025710
 Sum of electronic and thermal Free Energies=         -193.056302
 
                     E (Thermal)             CV                S
                      KCal/Mol        Cal/Mol-Kelvin    Cal/Mol-Kelvin
 Total                   24.527              8.885             64.385
 Electronic               0.000              0.000              0.000
 Translational            0.889              2.981             42.027
 Rotational               0.889              2.981             21.222
 Vibrational             22.750              2.923              1.136
 Vibration     1          0.848              1.267              0.678
                       Q            Log10(Q)             Ln(Q)
 Total Bot       0.455055D-04         -4.341936         -9.997677
 Total V=0       0.140254D+13         12.146916         27.969307
 Vib (Bot)       0.373659D-16        -16.427525        -37.825774
 Vib (Bot)    1  0.336270D+00         -0.473312         -1.089841
 Vib (V=0)       0.115167D+01          0.061326          0.141209
 Vib (V=0)    1  0.110256D+01          0.042402          0.097634
 Electronic      0.100000D+01          0.000000          0.000000
 Translational   0.125639D+09          8.099126         18.648926
 Rotational      0.969312D+04          3.986463          9.179171
 ***** Axes restored to original set *****
 -------------------------------------------------------------------
 Center     Atomic                   Forces (Hartrees/Bohr)
 Number     Number              X              Y              Z
 -------------------------------------------------------------------
      1        6          -0.000049650    0.000014558    0.000003949
      2       80           0.000017867    0.000007210    0.000000860
      3        1           0.000015755   -0.000009254   -0.000005785
      4        1           0.000014695   -0.000013181   -0.000000523
      5        1           0.000001333    0.000000668    0.000001499
 -------------------------------------------------------------------
 Cartesian Forces:  Max     0.000049650 RMS     0.000015972
 FormGI is forming the generalized inverse of G from B-inverse, IUseBI=4.

 GradGradGradGradGradGradGradGradGradGradGradGradGradGradGradGradGradGrad
 Berny optimization.
 Internal  Forces:  Max     0.000019594 RMS     0.000010055
 Search for a local minimum.
 Step number   1 out of a maximum of    2
 All quantities printed in internal units (Hartrees-Bohrs-Radians)
 Second derivative matrix not updated -- analytic derivatives used.
 The second derivative matrix:
                          R1        R2        R3        R4        A1
           R1           0.13072
           R2           0.00042   0.36308
           R3           0.00042  -0.00193   0.36308
           R4           0.00043  -0.00193  -0.00193   0.36304
           A1           0.00251  -0.00133   0.00028  -0.00004   0.01430
           A2           0.00400   0.00064  -0.00146  -0.00090  -0.00469
           A3           0.00817  -0.00055  -0.00028  -0.00261  -0.01174
           A4           0.00039   0.00314   0.00298  -0.00628  -0.00651
           A5          -0.00507   0.00425  -0.00631   0.00421  -0.00734
           A6          -0.00569  -0.00652   0.00436   0.00457   0.01535
           D1           0.00550   0.00012   0.00072  -0.00320   0.01143
           D2          -0.00569   0.00012   0.00247  -0.00017  -0.00692
           D3           0.00719  -0.00229  -0.00007  -0.00070  -0.00609
           D4           0.01288  -0.00241  -0.00253  -0.00052   0.00083
                          A2        A3        A4        A5        A6
           A2           0.02680
           A3          -0.02011   0.05404
           A4          -0.00126   0.02115   0.04670
           A5           0.01614  -0.02143  -0.02622   0.06307
           A6          -0.01630  -0.01538  -0.02994  -0.02793   0.06941
           D1           0.00979  -0.01695   0.01108  -0.01009  -0.00400
           D2           0.01070  -0.00913   0.00613  -0.00497   0.00260
           D3           0.01301   0.00175  -0.00147  -0.00523   0.00059
           D4           0.00230   0.01088  -0.00761  -0.00027  -0.00202
                          D1        D2        D3        D4
           D1           0.02395
           D2           0.00072   0.01565
           D3          -0.00012   0.00835   0.01667
           D4          -0.00083  -0.00730   0.00832   0.01562
 ITU=  0
     Eigenvalues ---    0.02544   0.03849   0.06497   0.10465   0.10574
     Eigenvalues ---    0.13666   0.35929   0.36540   0.36548
 Angle between quadratic step and forces=  27.69 degrees.
 Linear search not attempted -- first point I Iteration  1 RMS(Cart)=  0.00011471 RMS(Int)=  0. Iteratio Iteration  2 RMS(Cart)=  0.00000002 RMS(Int)=  0. Iteration  2 RMS(Cart)=  0.00000002 RMS(Int)=  0.00000002
 Variable       Old X    -DE/DX   Delta X   Delta X   Delta X     New X
                                 (Linear)    (Quad)   (Total)
    R1        4.02564   0.00002   0.00000   0.00018   0.00018   4.02582
    R2        2.07114   0.00001   0.00000   0.00002   0.00002   2.07116
    R3        2.07114   0.00001   0.00000   0.00002   0.00002   2.07116
    R4        2.07118  -0.00000   0.00000  -0.00001  -0.00001   2.07117
    A1        1.79047  -0.00000   0.00000  -0.00018  -0.00018   1.79029
    A2        1.79039  -0.00001   0.00000  -0.00009  -0.00009   1.79030
    A3        1.79022   0.00000   0.00000   0.00009   0.00009   1.79031
    A4        2.01426  -0.00002   0.00000  -0.00022  -0.00022   2.01404
    A5        2.01389   0.00001   0.00000   0.00015   0.00015   2.01405
    A6        2.01386   0.00001   0.00000   0.00019   0.00019   2.01405
    D1        1.93179  -0.00002   0.00000  -0.00035  -0.00035   1.93143
    D2       -1.93153  -0.00000   0.00000   0.00009   0.00009  -1.93144
    D3        1.93143   0.00000   0.00000   0.00003   0.00003   1.93146
    D4       -2.42022   0.00000   0.00000  -0.00007  -0.00007  -2.42028
         Item               Value     Threshold  Converged?
 Maximum Force            0.000020     0.000450     YES
 RMS     Force            0.000010     0.000300     YES
 Maximum Displacement     0.000209     0.001800     YES
 RMS     Displacement     0.000115     0.001200     YES
 Predicted change in Energy=-9.518891D-09
 Optimization completed.
    -- Stationary point found.
                           ----------------------------
                           !   Optimized Parameters   !
                           ! (Angstroms and Degrees)  !
 --------------------------                            --------------------------
 ! Name  Definition              Value          Derivative Info.                !
 --------------------------------------------------------------------------------
 ! R1    R(1,2)                  2.1303         -DE/DX =    0.0                 !
 ! R2    R(1,3)                  1.096          -DE/DX =    0.0                 !
 ! R3    R(1,4)                  1.096          -DE/DX =    0.0                 !
 ! R4    R(1,5)                  1.096          -DE/DX =    0.0                 !
 ! A1    A(2,1,3)              102.5863         -DE/DX =    0.0                 !
 ! A2    A(2,1,4)              102.5819         -DE/DX =    0.0                 !
 ! A3    A(2,1,5)              102.5721         -DE/DX =    0.0                 !
 ! A4    A(3,1,4)              115.4087         -DE/DX =    0.0                 !
 ! A5    A(3,1,5)              115.3877         -DE/DX =    0.0                 !
 ! A6    A(4,1,5)              115.3859         -DE/DX =    0.0                 !
 ! D1    D(2,1,4,3)            110.6833         -DE/DX =    0.0                 !
 ! D2    D(2,1,5,3)           -110.6688         -DE/DX =    0.0                 !
 ! D3    D(2,1,5,4)            110.6628         -DE/DX =    0.0                 !
 ! D4    D(3,1,5,4)           -138.6684         -DE/DX =    0.0                 !
 --------------------------------------------------------------------------------
 GradGradGradGradGradGrad
 ------------------------------------------------
 ----------------------------------------------------------------------

 Electric dipole moment (input orientation):
 (Debye = 10**-18 statcoulomb cm , SI units = C m)
                  (au)            (Debye)         (10**-30 SI)
   Tot        0.638943D+00      0.162403D+01      0.541718D+01
   x         -0.452123D+00     -0.114918D+01     -0.383326D+01
   y         -0.451478D+00     -0.114754D+01     -0.382779D+01
   z         -0.521740D-03     -0.132613D-02     -0.442349D-02

 Dipole polarizability, Alpha (input orientation).
 (esu units = cm**3 , SI units = C**2 m**2 J**-1)
 Alpha(0;0):
               (au)            (10**-24 esu)      (10**-40 SI)
   iso        0.356568D+02      0.528379D+01      0.587901D+01
   aniso      0.262069D+02      0.388347D+01      0.432094D+01
   xx         0.400395D+02      0.593324D+01      0.660162D+01
   yx         0.131035D+02      0.194174D+01      0.216048D+01
   yy         0.400095D+02      0.592880D+01      0.659667D+01
   zx         0.152018D-01      0.225268D-02      0.250644D-02
   zy         0.148919D-01      0.220675D-02      0.245535D-02
   zz         0.269213D+02      0.398933D+01      0.443873D+01

 ----------------------------------------------------------------------

 Dipole orientation:
     6         -6.09572250          6.10747656          4.57809400
    80         -6.09618732          6.10796103          0.55244985
     1         -4.07795361          6.22884144          5.02919610
     1         -6.99999608          4.29958552          5.02914659
     1         -7.20953691          7.79438303          5.02925576

 Electric dipole moment (dipole orientation):
 (Debye = 10**-18 statcoulomb cm , SI units = C m)
                  (au)            (Debye)         (10**-30 SI)
   Tot        0.638943D+00      0.162403D+01      0.541718D+01
   x          0.000000D+00      0.000000D+00      0.000000D+00
   y          0.000000D+00      0.000000D+00      0.000000D+00
   z          0.638943D+00      0.162403D+01      0.541718D+01

 Dipole polarizability, Alpha (dipole orientation).
 (esu units = cm**3 , SI units = C**2 m**2 J**-1)
 Alpha(0;0):
               (au)            (10**-24 esu)      (10**-40 SI)
   iso        0.356568D+02      0.528379D+01      0.587901D+01
   aniso      0.262069D+02      0.388347D+01      0.432094D+01
   xx         0.269213D+02      0.398933D+01      0.443873D+01
   yx         0.192557D-03      0.285341D-04      0.317484D-04
   yy         0.269209D+02      0.398927D+01      0.443866D+01
   zx         0.269691D-02      0.399641D-03      0.444660D-03
   zy        -0.253106D-02     -0.375064D-03     -0.417315D-03
   zz         0.531281D+02      0.787277D+01      0.875963D+01

 ----------------------------------------------------------------------
 1\1\GINC-GRANADO-COMPUTE-1\Freq\RAPFD\def2SVP\C1H3Hg1(1+)\ROOT\25-Aug-
 2022\0\\#N Geom=AllCheck Guess=TCheck SCRF=Check GenChk RAPFD/def2SVP 
 Freq\\Optimization MeHg-adfd-def2svp-solvation\\1,1\C,-4.9407996199,1.
 5193001832,-0.0008371112\Hg,-3.4336422213,3.0248110189,0.0009095044\H,
 -4.6091729537,0.8484424656,0.7999049782\H,-4.8696829568,1.1114595366,-
 1.0156409986\H,-5.8504792483,2.0921547957,0.2126626272\\Version=EM64L-
 G16RevA.03\State=1-A\HF=-193.0657413\RMSD=7.398e-09\RMSF=1.598e-05\Zer
 oPoint=0.0358479\Thermal=0.039087\Dipole=-0.4521229,-0.4514784,-0.0005
 217\DipoleDeriv=0.3495575,0.6025986,0.0006828,0.6025263,0.3481562,0.00
 07078,0.0006915,0.0007144,-0.2537805,0.5559336,-0.2686517,-0.0003133,-
 0.2686853,0.5564786,-0.000307,-0.0003122,-0.000306,0.8248589,0.0059022
 ,-0.1692539,0.0469836,-0.0500211,0.0542605,0.009527,-0.0482123,-0.0856
 646,0.1461775,0.0093774,-0.1291604,-0.0475223,-0.0721497,0.0325402,-0.
 0247114,0.0731841,0.0957546,0.1643767,0.0792292,-0.0355326,0.0001692,-
 0.2116703,0.0085645,0.0147836,-0.0253511,-0.0104984,0.1183675\Polar=40
 .0394877,13.1035431,40.0094948,0.0152018,0.0148919,26.921343\Quadrupol
 e=1.0588011,1.0514943,-2.1102954,3.1661695,0.0037629,0.0034913\PG=C01 
 [X(C1H3Hg1)]\NImag=0\\0.41284727,-0.18760193,0.41339535,-0.00018689,-0
 .00025205,0.60090245,-0.05141524,-0.03791896,-0.00004458,0.07042417,-0
 .03791680,-0.05133188,-0.00004418,0.06037366,0.07026129,-0.00004362,-0
 .00004458,-0.01345839,0.00007400,0.00006800,0.00998224,-0.06753749,0.0
 6437169,-0.06442948,-0.00308605,-0.01249765,0.00778227,0.06835494,0.06
 827866,-0.15621919,0.13837448,-0.00230922,-0.00973512,0.00565962,-0.06
 399949,0.15763285,-0.06755880,0.13525570,-0.21324240,-0.00034658,-0.00
 247243,0.00134500,0.07181515,-0.14311987,0.21412557,-0.04173666,0.0165
 1511,0.01488515,-0.00533299,-0.00931823,-0.00918807,0.00251303,-0.0030
 3746,-0.00714177,0.03979896,0.01838143,-0.08382319,-0.10790262,-0.0044
 4671,-0.00850389,-0.00789051,-0.00060664,0.01149951,0.01697514,-0.0121
 9440,0.08213965,0.01884940,-0.10395817,-0.31143282,0.00112491,0.002405
 19,0.00235302,0.00283942,-0.01003902,-0.00982634,-0.02023568,0.1099078
 1,0.31817699,-0.25215788,0.14463408,0.04977580,-0.01058989,-0.00064097
 ,0.00137542,-0.00024443,0.00106751,0.00323200,0.00475767,-0.00113368,-
 0.00257805,0.25823452,0.13885864,-0.12202108,-0.03017563,-0.01569877,-
 0.00069041,0.00220746,0.01273208,-0.00317804,-0.00663854,0.00803498,-0
 .00131209,0.00168418,-0.14392694,0.12720163,0.04893991,-0.03100090,-0.
 06276884,-0.00080776,0.00004341,-0.00022186,-0.01800736,0.00912478,0.0
 0759817,0.02168038,-0.01108982,0.00072915,-0.05180517,0.03292253,0.054
 66338\\0.00004968,-0.00001452,-0.00000395,-0.00001787,-0.00000722,-0.0
 0000086,-0.00001575,0.00000923,0.00000581,-0.00001470,0.00001316,0.000
 00049,-0.00000136,-0.00000066,-0.00000149\\\@


 WHEN YOU'VE SEEN ONE NUCLEAR WAR YOU'VE SEEN THEM ALL.
 Job cpu time:       0 days  0 hours 15 minutes 10.5 seconds.
 Elapsed time:       0 days  0 hours 13 minutes 43.7 seconds.
 File lengths (MBytes):  RWF=      6 Int=      0 D2E=      0 Chk=      2 Scr=      1
 Normal termination of Gaussian 16 at Thu Aug 25 06:40:50 2022.
le lengths (MBytes):  RWF=      6 Int=      0 D2E=      0 Chk=      2 Scr=      1
 Normal termination of Gaussian 16 at Thu Aug 25 06:40:48 2022.
EEK                     
                THE WIZARD OF ID                
 Job cpu time:       0 days  0 hours 14 minutes 31.7 seconds.
 Elapsed time:       0 days  0 hours 13 minutes 52.6 seconds.
 File lengths (MBytes):  RWF=      6 Int=      0 D2E=      0 Chk=      2 Scr=      1
 Normal termination of Gaussian 16 at Thu Aug 25 06:40:39 2022.
6:40:00 2022.
