 Entering Gaussian System, Link 0=g16
 Input=input.gjf
 Output=input.log
 Initial command:
 /opt/ohpc/pub/apps/gaussian/G16x86_64_legacy_CPUs_linux_binary/g16/l1.exe "/tmp/Gau-29261.inp" -scrdir="/tmp/"
 Entering Link 1 = /opt/ohpc/pub/apps/gaussian/G16x86_64_legacy_CPUs_linux_binary/g16/l1.exe PID=     29310.
  
 Copyright (c) 1988,1990,1992,1993,1995,1998,2003,2009,2016,
            Gaussian, Inc.  All Rights Reserved.
  
 This is part of the Gaussian(R) 16 program.  It is based on
 the Gaussian(R) 09 system (copyright 2009, Gaussian, Inc.),
 the Gaussian(R) 03 system (copyright 2003, Gaussian, Inc.),
 the Gaussian(R) 98 system (copyright 1998, Gaussian, Inc.),
 the Gaussian(R) 94 system (copyright 1995, Gaussian, Inc.),
 the Gaussian 92(TM) system (copyright 1992, Gaussian, Inc.),
 the Gaussian 90(TM) system (copyright 1990, Gaussian, Inc.),
 the Gaussian 88(TM) system (copyright 1988, Gaussian, Inc.),
 the Gaussian 86(TM) system (copyright 1986, Carnegie Mellon
 University), and the Gaussian 82(TM) system (copyright 1983,
 Carnegie Mellon University). Gaussian is a federally registered
 trademark of Gaussian, Inc.
  
 This software contains proprietary and confidential information,
 including trade secrets, belonging to Gaussian, Inc.
  
 This software is provided under written license and may be
 used, copied, transmitted, or stored only in accord with that
 written license.
  
 The following legend is applicable only to US Government
 contracts under FAR:
  
                    RESTRICTED RIGHTS LEGEND
  
 Use, reproduction and disclosure by the US Government is
 subject to restrictions as set forth in subparagraphs (a)
 and (c) of the Commercial Computer Software - Restricted
 Rights clause in FAR 52.227-19.
  
 Gaussian, Inc.
 340 Quinnipiac St., Bldg. 40, Wallingford CT 06492
  
  
 ---------------------------------------------------------------
 Warning -- This program may not be used in any manner that
 competes with the business of Gaussian, Inc. or will provide
 assistance to any competitor of Gaussian, Inc.  The licensee
 of this program is prohibited from giving any competitor of
 Gaussian, Inc. access to this program.  By using this program,
 the user acknowledges that Gaussian, Inc. is engaged in the
 business of creating and licensing software in the field of
 computational chemistry and represents and warrants to the
 licensee that it is not a competitor of Gaussian, Inc. and that
 it will not use this program in any manner prohibited above.
 ---------------------------------------------------------------
  

 Cite this work as:
 Gaussian 16, Revision A.03,
 M. J. Frisch, G. W. Trucks, H. B. Schlegel, G. E. Scuseria, 
 M. A. Robb, J. R. Cheeseman, G. Scalmani, V. Barone, 
 G. A. Petersson, H. Nakatsuji, X. Li, M. Caricato, A. V. Marenich, 
 J. Bloino, B. G. Janesko, R. Gomperts, B. Mennucci, H. P. Hratchian, 
 J. V. Ortiz, A. F. Izmaylov, J. L. Sonnenberg, D. Williams-Young, 
 F. Ding, F. Lipparini, F. Egidi, J. Goings, B. Peng, A. Petrone, 
 T. Henderson, D. Ranasinghe, V. G. Zakrzewski, J. Gao, N. Rega, 
 G. Zheng, W. Liang, M. Hada, M. Ehara, K. Toyota, R. Fukuda, 
 J. Hasegawa, M. Ishida, T. Nakajima, Y. Honda, O. Kitao, H. Nakai, 
 T. Vreven, K. Throssell, J. A. Montgomery, Jr., J. E. Peralta, 
 F. Ogliaro, M. J. Bearpark, J. J. Heyd, E. N. Brothers, K. N. Kudin, 
 V. N. Staroverov, T. A. Keith, R. Kobayashi, J. Normand, 
 K. Raghavachari, A. P. Rendell, J. C. Burant, S. S. Iyengar, 
 J. Tomasi, M. Cossi, J. M. Millam, M. Klene, C. Adamo, R. Cammi, 
 J. W. Ochterski, R. L. Martin, K. Morokuma, O. Farkas, 
 J. B. Foresman, and D. J. Fox, Gaussian, Inc., Wallingford CT, 2016.
 
 ******************************************
 Gaussian 16:  EM64L-G16RevA.03 25-Dec-2016
                13-Aug-2023 
 ******************************************
 %NProcShared=24
 Will use up to   24 processors via shared memory.
 %Chk=ch3hgbr_gas_apfd_def2svp.chk
 ------------------------------------------------
 #Opt Freq mp2/Def2SVP int=Ultrafine scf=xqc test
 ------------------------------------------------
 1/18=20,19=15,38=1/1,3;
 2/9=110,12=2,17=6,18=5,40=1/2;
 3/5=43,7=101,11=9,25=1,30=1,71=1,75=-5/1,2,3;
 4//1;
 5/5=2,8=3,13=1,38=5/2,8;
 8/6=4,10=1/1;
 9/15=2,16=-3/6;
 10/5=1/2;
 6/7=2,8=2,9=2,10=2/1;
 7/12=2/1,2,3,16;
 1/18=20,19=15/3(2);
 2/9=110/2;
 99//99;
 2/9=110/2;
 3/5=43,7=101,11=9,25=1,30=1,71=1,75=-5/1,2,3;
 4/5=5,16=3,69=1/1;
 5/5=2,8=3,13=1,38=5/2,8;
 8/6=4,10=1/1;
 9/15=2,16=-3/6;
 10/5=1/2;
 7/12=2/1,2,3,16;
 1/18=20,19=15/3(-8);
 2/9=110/2;
 6/7=2,8=2,9=2,10=2/1;
 99//99;
 ------------------------------------------
 Optimization MeHgbr-apfd-def2svp-gas phase
 ------------------------------------------
 Symbolic Z-matrix:
 Charge =  0 Multiplicity = 1
 C                    -4.87226   1.58796   0.00002 
 Hg                   -3.37421   3.08412   0.00005 
 H                    -4.63754   0.85031   0.7709 
 H                    -4.89474   1.108    -0.98111 
 H                    -5.83831   2.05276   0.2102 
 Br                   -1.69759   4.75882  -0.00006 
 

 GradGradGradGradGradGradGradGradGradGradGradGradGradGradGradGradGradGrad
 Berny optimization.
 Initialization pass.
                           ----------------------------
                           !    Initial Parameters    !
                           ! (Angstroms and Degrees)  !
 --------------------------                            --------------------------
 ! Name  Definition              Value          Derivative Info.                !
 --------------------------------------------------------------------------------
 ! R1    R(1,2)                  2.1172         estimate D2E/DX2                !
 ! R2    R(1,3)                  1.0925         estimate D2E/DX2                !
 ! R3    R(1,4)                  1.0925         estimate D2E/DX2                !
 ! R4    R(1,5)                  1.0925         estimate D2E/DX2                !
 ! R5    R(2,6)                  2.3697         estimate D2E/DX2                !
 ! A1    A(2,1,3)              108.9724         estimate D2E/DX2                !
 ! A2    A(2,1,4)              108.9678         estimate D2E/DX2                !
 ! A3    A(2,1,5)              108.9665         estimate D2E/DX2                !
 ! A4    A(3,1,4)              109.9682         estimate D2E/DX2                !
 ! A5    A(3,1,5)              109.9692         estimate D2E/DX2                !
 ! A6    A(4,1,5)              109.9691         estimate D2E/DX2                !
 ! A7    L(1,2,6,5,-1)         179.9977         estimate D2E/DX2                !
 ! A8    L(1,2,6,5,-2)         180.0102         estimate D2E/DX2                !
 ! D1    D(2,1,4,3)            119.3833         estimate D2E/DX2                !
 ! D2    D(2,1,5,3)           -119.383          estimate D2E/DX2                !
 ! D3    D(2,1,5,4)            119.3773         estimate D2E/DX2                !
 ! D4    D(3,1,5,4)           -121.2396         estimate D2E/DX2                !
 --------------------------------------------------------------------------------
 Trust Radius=3.00D-01 FncErr=1.00D-07 GrdErr=1.00D-07 EigMax=2.50D+02 EigMin=1.00D-04
 Number of steps in this run=     27 maximum allowed number of steps=    100.
 GradGradGradGradGradGradGradGradGradGradGradGradGradGradGradGradGradGrad

                          Input orientation:                          
 ---------------------------------------------------------------------
 Center     Atomic      Atomic             Coordinates (Angstroms)
 Number     Number       Type             X           Y           Z
 ---------------------------------------------------------------------
      1          6           0       -4.872260    1.587957    0.000017
      2         80           0       -3.374214    3.084122    0.000049
      3          1           0       -4.637535    0.850314    0.770897
      4          1           0       -4.894741    1.107998   -0.981111
      5          1           0       -5.838309    2.052761    0.210203
      6         35           0       -1.697590    4.758818   -0.000055
 ---------------------------------------------------------------------
                    Distance matrix (angstroms):
                    1          2          3          4          5
     1  C    0.000000
     2  Hg   2.117227   0.000000
     3  H    1.092460   2.679568   0.000000
     4  H    1.092464   2.679504   1.789438   0.000000
     5  H    1.092461   2.679484   1.789445   1.789449   0.000000
     6  Br   4.486969   2.369741   4.951166   4.951033   4.951011
                    6
     6  Br   0.000000
 This structure is nearly, but not quite of a higher symmetry.
 Consider Symm=Loose if the higher symmetry is desired.
 Stoichiometry    CH3BrHg
 Framework group  C1[X(CH3BrHg)]
 Deg. of freedom    12
 Full point group                 C1      NOp   1
 Largest Abelian subgroup         C1      NOp   1
 Largest concise Abelian subgroup C1      NOp   1
                         Standard orientation:                         
 ---------------------------------------------------------------------
 Center     Atomic      Atomic             Coordinates (Angstroms)
 Number     Number       Type             X           Y           Z
 ---------------------------------------------------------------------
      1          6           0        0.337272    0.850237   -2.459249
      2         80           0        0.065161    0.164179   -0.474827
      3          1           0        1.337245    1.280166   -2.552436
      4          1           0       -0.417111    1.609199   -2.679157
      5          1           0        0.228544    0.006530   -3.144675
      6         35           0       -0.239577   -0.603761    1.746226
 ---------------------------------------------------------------------
 Rotational constants (GHZ):         156.6014543           1.1570541           1.1570541
 Standard basis: def2SVP (5D, 7F)
 There are   102 symmetry adapted cartesian basis functions of A   symmetry.
 There are    93 symmetry adapted basis functions of A   symmetry.
    93 basis functions,   191 primitive gaussians,   102 cartesian basis functions
    32 alpha electrons       32 beta electrons
       nuclear repulsion energy       243.7515282257 Hartrees.
 NAtoms=    6 NActive=    6 NUniq=    6 SFac= 1.00D+00 NAtFMM=   60 NAOKFM=F Big=F
 Integral buffers will be    131072 words long.
 Raffenetti 1 integral format.
 Two-electron integral symmetry is turned on.
 One-electron integrals computed using PRISM.
 PrsmSu:  requested number of processors reduced to:  13 ShMem   1 Linda.
   1 Symmetry operations used in ECPInt.
 ECPInt:  NShTT=     780 NPrTT=    3001 LenC2=     759 LenP2D=    2438.
 LDataN:  DoStor=T MaxTD1= 8 Len=  415
 NBasis=    93 RedAO= T EigKep=  8.07D-03  NBF=    93
 NBsUse=    93 1.00D-06 EigRej= -1.00D+00 NBFU=    93
 ExpMin= 5.64D-02 ExpMax= 1.13D+05 ExpMxC= 1.70D+04 IAcc=3 IRadAn=         5 AccDes= 0.00D+00
 Harris functional with IExCor=  205 and IRadAn=       5 diagonalized for initial guess.
 HarFok:  IExCor=  205 AccDes= 0.00D+00 IRadAn=         5 IDoV= 1 UseB2=F ITyADJ=14
 ICtDFT=  3500011 ScaDFX=  1.000000  1.000000  1.000000  1.000000
 Defaulting to unpruned grid for atomic number  80.
 FoFCou: FMM=F IPFlag=           0 FMFlag=      100000 FMFlg1=           0
         NFxFlg=           0 DoJE=T BraDBF=F KetDBF=T FulRan=T
         wScrn=  0.000000 ICntrl=       500 IOpCl=  0 I1Cent=   200000004 NGrid=           0
         NMat0=    1 NMatS0=      1 NMatT0=    0 NMatD0=    1 NMtDS0=    0 NMtDT0=    0
 Petite list used in FoFCou.
 Keep R1 ints in memory in canonical form, NReq=21302256.
 Requested convergence on RMS density matrix=1.00D-08 within  32 cycles.
 Requested convergence on MAX density matrix=1.00D-06.
 Requested convergence on             energy=1.00D-06.
 No special actions if energy rises.
 SCF Done:  E(RHF) =  -2764.23289261     A.U. after   12 cycles
            NFock= 12  Conv=0.53D-08     -V/T= 2.0382
 QCSCF skips out because SCF is already converged.
 ExpMin= 5.64D-02 ExpMax= 1.13D+05 ExpMxC= 1.70D+04 IAcc=3 IRadAn=         5 AccDes= 0.00D+00
 HarFok:  IExCor=  205 AccDes= 0.00D+00 IRadAn=         5 IDoV=-2 UseB2=F ITyADJ=14
 ICtDFT= 12500011 ScaDFX=  1.000000  1.000000  1.000000  1.000000
 Defaulting to unpruned grid for atomic number  80.
 Range of M.O.s used for correlation:    11    93
 NBasis=    93 NAE=    32 NBE=    32 NFC=    10 NFV=     0
 NROrb=     83 NOA=    22 NOB=    22 NVA=    61 NVB=    61
 Disk-based method using ON**2 memory for 22 occupieds at a time.
 Estimated scratch disk usage=    43693314 words.
 Actual    scratch disk usage=    40557826 words.
 GetIJB would need an additional   285475494 words of memory to use all  24 processors.
 JobTyp=1 Pass  1:  I=  11 to  32 NPSUse=  6 ParTrn=T ParDer=T DoDerP=T.
 Spin components of T(2) and E(2):
     alpha-alpha T2 =       0.3259224688D-01 E2=     -0.1217623827D+00
     alpha-beta  T2 =       0.1478839685D+00 E2=     -0.5139668135D+00
     beta-beta   T2 =       0.3259224688D-01 E2=     -0.1217623827D+00
 ANorm=    0.1101393872D+01
 E2 =    -0.7574915789D+00 EUMP2 =    -0.27649903841928D+04
          IDoAtm=111111
          Differentiating once with respect to electric field.
                with respect to dipole field.
          Differentiating once with respect to nuclear coordinates.
 Keep R1 ints in memory in canonical form, NReq=21305122.
          There are     1 degrees of freedom in the 1st order CPHF.  IDoFFX=0 NUNeed=     1.
 LinEq1:  Iter=  0 NonCon=     1 RMS=5.89D-03 Max=1.45D-01 NDo=     1
 AX will form     1 AO Fock derivatives at one time.
 LinEq1:  Iter=  1 NonCon=     1 RMS=1.43D-03 Max=1.90D-02 NDo=     1
 LinEq1:  Iter=  2 NonCon=     1 RMS=4.40D-04 Max=6.63D-03 NDo=     1
 LinEq1:  Iter=  3 NonCon=     1 RMS=1.18D-04 Max=1.90D-03 NDo=     1
 LinEq1:  Iter=  4 NonCon=     1 RMS=3.61D-05 Max=3.41D-04 NDo=     1
 LinEq1:  Iter=  5 NonCon=     1 RMS=8.40D-06 Max=1.40D-04 NDo=     1
 LinEq1:  Iter=  6 NonCon=     1 RMS=2.13D-06 Max=3.59D-05 NDo=     1
 LinEq1:  Iter=  7 NonCon=     1 RMS=7.54D-07 Max=1.66D-05 NDo=     1
 LinEq1:  Iter=  8 NonCon=     1 RMS=1.98D-07 Max=2.47D-06 NDo=     1
 LinEq1:  Iter=  9 NonCon=     1 RMS=3.86D-08 Max=5.92D-07 NDo=     1
 LinEq1:  Iter= 10 NonCon=     1 RMS=7.30D-09 Max=9.07D-08 NDo=     1
 LinEq1:  Iter= 11 NonCon=     1 RMS=1.89D-09 Max=2.02D-08 NDo=     1
 LinEq1:  Iter= 12 NonCon=     1 RMS=3.97D-10 Max=5.82D-09 NDo=     1
 LinEq1:  Iter= 13 NonCon=     0 RMS=5.61D-11 Max=5.20D-10 NDo=     1
 Linear equations converged to 1.000D-10 1.000D-09 after    13 iterations.
 End of Minotr F.D. properties file   721 does not exist.
 End of Minotr F.D. properties file   722 does not exist.
 End of Minotr F.D. properties file   788 does not exist.

 **********************************************************************

            Population analysis using the SCF density.

 **********************************************************************

 Orbital symmetries:
       Occupied  (A) (A) (A) (A) (A) (A) (A) (A) (A) (A) (A) (A)
                 (A) (A) (A) (A) (A) (A) (A) (A) (A) (A) (A) (A)
                 (A) (A) (A) (A) (A) (A) (A) (A)
       Virtual   (A) (A) (A) (A) (A) (A) (A) (A) (A) (A) (A) (A)
                 (A) (A) (A) (A) (A) (A) (A) (A) (A) (A) (A) (A)
                 (A) (A) (A) (A) (A) (A) (A) (A) (A) (A) (A) (A)
                 (A) (A) (A) (A) (A) (A) (A) (A) (A) (A) (A) (A)
                 (A) (A) (A) (A) (A) (A) (A) (A) (A) (A) (A) (A)
                 (A)
 The electronic state is 1-A.
 Alpha  occ. eigenvalues -- -489.93695 -65.10543 -58.47705 -58.47623 -58.47623
 Alpha  occ. eigenvalues --  -11.24584  -9.79652  -7.41103  -7.40552  -7.40552
 Alpha  occ. eigenvalues --   -5.11960  -3.15278  -3.15039  -3.15039  -3.14492
 Alpha  occ. eigenvalues --   -3.14492  -3.11114  -3.10653  -3.10653  -0.97823
 Alpha  occ. eigenvalues --   -0.92867  -0.69344  -0.69344  -0.68566  -0.67439
 Alpha  occ. eigenvalues --   -0.67439  -0.55816  -0.55815  -0.46836  -0.39282
 Alpha  occ. eigenvalues --   -0.39195  -0.39195
 Alpha virt. eigenvalues --    0.08783   0.08783   0.09718   0.18631   0.25602
 Alpha virt. eigenvalues --    0.25602   0.25749   0.32063   0.56566   0.56566
 Alpha virt. eigenvalues --    0.59859   0.59859   0.62259   0.64905   0.67770
 Alpha virt. eigenvalues --    0.67771   0.68533   0.78454   0.78454   0.86508
 Alpha virt. eigenvalues --    0.86608   0.86609   0.91062   0.91063   0.98220
 Alpha virt. eigenvalues --    0.98220   1.01214   1.05160   1.05160   1.06774
 Alpha virt. eigenvalues --    1.21482   1.51216   1.51217   1.52891   1.78658
 Alpha virt. eigenvalues --    1.82001   1.82001   1.82267   1.82271   1.82848
 Alpha virt. eigenvalues --    1.83000   1.83000   2.04178   2.04178   2.23310
 Alpha virt. eigenvalues --    2.28120   2.28121   2.51428   2.71082   2.74236
 Alpha virt. eigenvalues --    2.74237   3.06774   3.25658   3.25658   3.93535
 Alpha virt. eigenvalues --    3.93535   4.00860   4.00860   4.26264  33.82017
 Alpha virt. eigenvalues --  121.71924
          Condensed to atoms (all electrons):
               1          2          3          4          5          6
     1  C    5.002743   0.297699   0.381704   0.381699   0.381698  -0.013885
     2  Hg   0.297699  18.942438  -0.035261  -0.035266  -0.035268   0.207268
     3  H    0.381704  -0.035261   0.601324  -0.012075  -0.012074   0.000282
     4  H    0.381699  -0.035266  -0.012075   0.601334  -0.012074   0.000282
     5  H    0.381698  -0.035268  -0.012074  -0.012074   0.601336   0.000282
     6  Br  -0.013885   0.207268   0.000282   0.000282   0.000282  35.260802
 Mulliken charges:
               1
     1  C   -0.431657
     2  Hg   0.658391
     3  H    0.076099
     4  H    0.076099
     5  H    0.076099
     6  Br  -0.455031
 Sum of Mulliken charges =  -0.00000
 Mulliken charges with hydrogens summed into heavy atoms:
               1
     1  C   -0.203359
     2  Hg   0.658391
     6  Br  -0.455031
 Electronic spatial extent (au):  <R**2>=            819.8282
 Charge=             -0.0000 electrons
 Dipole moment (field-independent basis, Debye):
    X=              0.3986    Y=              1.0044    Z=             -2.9048  Tot=              3.0993
 Quadrupole moment (field-independent basis, Debye-Ang):
   XX=            -48.6106   YY=            -49.2615   ZZ=            -54.9513
   XY=             -0.3065   XZ=              0.8865   YZ=              2.2343
 Traceless Quadrupole moment (field-independent basis, Debye-Ang):
   XX=              2.3305   YY=              1.6797   ZZ=             -4.0102
   XY=             -0.3065   XZ=              0.8865   YZ=              2.2343
 Octapole moment (field-independent basis, Debye-Ang**2):
  XXX=              2.2114  YYY=              4.1775  ZZZ=             -7.1079  XYY=              0.2412
  XXY=              2.1188  XXZ=             -4.3941  XZZ=             -0.3095  YZZ=             -0.9042
  YYZ=             -4.0884  XYZ=              0.3095
 Hexadecapole moment (field-independent basis, Debye-Ang**3):
 XXXX=            -72.2481 YYYY=           -142.7688 ZZZZ=           -759.1565 XXXY=            -15.0920
 XXXZ=             45.7508 YYYX=            -17.2057 YYYZ=            118.2935 ZZZX=             49.5299
 ZZZY=            125.9181 XXYY=            -34.7690 XXZZ=           -136.1931 YYZZ=           -147.7869
 XXYZ=             37.6589 YYXZ=             16.5502 ZZXY=             -6.3665
 N-N= 2.437515282257D+02 E-N=-7.054474649081D+03  KE= 2.662532051572D+03
 PrsmSu:  requested number of processors reduced to:  13 ShMem   1 Linda.
   1 Symmetry operations used in ECPInt.
 ECPInt:  NShTT=     780 NPrTT=    3001 LenC2=     759 LenP2D=    2438.
 LDataN:  DoStor=T MaxTD1= 9 Len=  602
 Calling FoFJK, ICntrl=  10002127 FMM=F ISym2X=0 I1Cent= 0 IOpClX= 0 NMat=1 NMatS=1 NMatT=0.
 ***** Axes restored to original set *****
 -------------------------------------------------------------------
 Center     Atomic                   Forces (Hartrees/Bohr)
 Number     Number              X              Y              Z
 -------------------------------------------------------------------
      1        6           0.012267440    0.012251665   -0.000002192
      2       80          -0.024680041   -0.024650001   -0.000000866
      3        1           0.001066442   -0.001829506    0.002296757
      4        1           0.000297977   -0.001062483   -0.002919638
      5        1          -0.002511568    0.001747461    0.000625619
      6       35           0.013559749    0.013542864    0.000000320
 -------------------------------------------------------------------
 Cartesian Forces:  Max     0.024680041 RMS     0.010311403

 GradGradGradGradGradGradGradGradGradGradGradGradGradGradGradGradGradGrad
 Berny optimization.
 FormGI is forming the generalized inverse of G from B-inverse, IUseBI=4.
 Internal  Forces:  Max     0.019164445 RMS     0.006152302
 Search for a local minimum.
 Step number   1 out of a maximum of   27
 All quantities printed in internal units (Hartrees-Bohrs-Radians)
 Mixed Optimization -- RFO/linear search
 Second derivative matrix not updated -- first step.
 The second derivative matrix:
                          R1        R2        R3        R4        R5
           R1           0.14592
           R2           0.00000   0.34530
           R3           0.00000   0.00000   0.34529
           R4           0.00000   0.00000   0.00000   0.34530
           R5           0.00000   0.00000   0.00000   0.00000   0.23115
           A1           0.00000   0.00000   0.00000   0.00000   0.00000
           A2           0.00000   0.00000   0.00000   0.00000   0.00000
           A3           0.00000   0.00000   0.00000   0.00000   0.00000
           A4           0.00000   0.00000   0.00000   0.00000   0.00000
           A5           0.00000   0.00000   0.00000   0.00000   0.00000
           A6           0.00000   0.00000   0.00000   0.00000   0.00000
           A7           0.00000   0.00000   0.00000   0.00000   0.00000
           A8           0.00000   0.00000   0.00000   0.00000   0.00000
           D1           0.00000   0.00000   0.00000   0.00000   0.00000
           D2           0.00000   0.00000   0.00000   0.00000   0.00000
           D3           0.00000   0.00000   0.00000   0.00000   0.00000
           D4           0.00000   0.00000   0.00000   0.00000   0.00000
                          A1        A2        A3        A4        A5
           A1           0.16000
           A2           0.00000   0.16000
           A3           0.00000   0.00000   0.16000
           A4           0.00000   0.00000   0.00000   0.16000
           A5           0.00000   0.00000   0.00000   0.00000   0.16000
           A6           0.00000   0.00000   0.00000   0.00000   0.00000
           A7           0.00000   0.00000   0.00000   0.00000   0.00000
           A8           0.00000   0.00000   0.00000   0.00000   0.00000
           D1           0.00000   0.00000   0.00000   0.00000   0.00000
           D2           0.00000   0.00000   0.00000   0.00000   0.00000
           D3           0.00000   0.00000   0.00000   0.00000   0.00000
           D4           0.00000   0.00000   0.00000   0.00000   0.00000
                          A6        A7        A8        D1        D2
           A6           0.16000
           A7           0.00000   0.00230
           A8           0.00000   0.00000   0.00230
           D1           0.00000   0.00000   0.00000   0.00230
           D2           0.00000   0.00000   0.00000   0.00000   0.00230
           D3           0.00000   0.00000   0.00000   0.00000   0.00000
           D4           0.00000   0.00000   0.00000   0.00000   0.00000
                          D3        D4
           D3           0.00230
           D4           0.00000   0.00230
 ITU=  0
     Eigenvalues ---    0.00230   0.00230   0.05051   0.05656   0.08734
     Eigenvalues ---    0.14592   0.16000   0.16000   0.23115   0.34529
     Eigenvalues ---    0.34530   0.34530
 RFO step:  Lambda=-3.31259841D-03 EMin= 2.30000000D-03
 Linear search not attempted -- first point.
 Iteration  1 RMS(Cart)=  0.02375101 RMS(Int)=  0.00001265
 Iteration  2 RMS(Cart)=  0.00000747 RMS(Int)=  0.00000637
 Iteration  3 RMS(Cart)=  0.00000000 RMS(Int)=  0.00000637
 Variable       Old X    -DE/DX   Delta X   Delta X   Delta X     New X
                                 (Linear)    (Quad)   (Total)
    R1        4.00098  -0.01572   0.00000  -0.10532  -0.10532   3.89566
    R2        2.06445   0.00309   0.00000   0.00885   0.00885   2.07330
    R3        2.06446   0.00308   0.00000   0.00884   0.00884   2.07330
    R4        2.06445   0.00308   0.00000   0.00885   0.00885   2.07330
    R5        4.47816   0.01916   0.00000   0.08174   0.08174   4.55990
    A1        1.90193  -0.00011   0.00000  -0.00292  -0.00291   1.89902
    A2        1.90185  -0.00017   0.00000  -0.00295  -0.00295   1.89889
    A3        1.90182  -0.00033   0.00000  -0.00302  -0.00302   1.89881
    A4        1.91931   0.00004   0.00000   0.00282   0.00280   1.92211
    A5        1.91932   0.00027   0.00000   0.00295   0.00294   1.92227
    A6        1.91932   0.00030   0.00000   0.00295   0.00294   1.92227
    A7        3.14155   0.00000   0.00000   0.00053   0.00053   3.14208
    A8        3.14177  -0.00000   0.00000  -0.00041  -0.00041   3.14136
    D1        2.08363  -0.00022   0.00000  -0.00368  -0.00368   2.07995
    D2       -2.08363   0.00018   0.00000   0.00363   0.00364  -2.07999
    D3        2.08353  -0.00023   0.00000  -0.00368  -0.00369   2.07984
    D4       -2.11603  -0.00042   0.00000  -0.00732  -0.00733  -2.12336
         Item               Value     Threshold  Converged?
 Maximum Force            0.019164     0.000450     NO 
 RMS     Force            0.006152     0.000300     NO 
 Maximum Displacement     0.060998     0.001800     NO 
 RMS     Displacement     0.023755     0.001200     NO 
 Predicted change in Energy=-1.686388D-03
 GradGradGradGradGradGradGradGradGradGradGradGradGradGradGradGradGradGrad

                          Input orientation:                          
 ---------------------------------------------------------------------
 Center     Atomic      Atomic             Coordinates (Angstroms)
 Number     Number       Type             X           Y           Z
 ---------------------------------------------------------------------
      1          6           0       -4.864781    1.595459    0.000023
      2         80           0       -3.406493    3.052564    0.000009
      3          1           0       -4.626224    0.856343    0.774956
      4          1           0       -4.884841    1.115331   -0.986283
      5          1           0       -5.833597    2.065001    0.211328
      6         35           0       -1.698712    4.757272   -0.000032
 ---------------------------------------------------------------------
                    Distance matrix (angstroms):
                    1          2          3          4          5
     1  C    0.000000
     2  Hg   2.061494   0.000000
     3  H    1.097143   2.629006   0.000000
     4  H    1.097144   2.628908   1.798866   0.000000
     5  H    1.097144   2.628835   1.798966   1.798967   0.000000
     6  Br   4.474489   2.412994   4.938438   4.938404   4.938651
                    6
     6  Br   0.000000
 Stoichiometry    CH3BrHg
 Framework group  C1[X(CH3BrHg)]
 Deg. of freedom    12
 Full point group                 C1      NOp   1
 Largest Abelian subgroup         C1      NOp   1
 Largest concise Abelian subgroup C1      NOp   1
                         Standard orientation:                         
 ---------------------------------------------------------------------
 Center     Atomic      Atomic             Coordinates (Angstroms)
 Number     Number       Type             X           Y           Z
 ---------------------------------------------------------------------
      1          6           0        2.584403    0.000616    0.000116
      2         80           0        0.522909   -0.000140   -0.000025
      3          1           0        2.937824    0.521714    0.898600
      4          1           0        2.937822    0.518436   -0.900263
      5          1           0        2.938238   -1.037902    0.002008
      6         35           0       -1.890086    0.000149    0.000027
 ---------------------------------------------------------------------
 Rotational constants (GHZ):         154.9531335           1.1357140           1.1357134
 Standard basis: def2SVP (5D, 7F)
 There are   102 symmetry adapted cartesian basis functions of A   symmetry.
 There are    93 symmetry adapted basis functions of A   symmetry.
    93 basis functions,   191 primitive gaussians,   102 cartesian basis functions
    32 alpha electrons       32 beta electrons
       nuclear repulsion energy       242.0443019443 Hartrees.
 NAtoms=    6 NActive=    6 NUniq=    6 SFac= 1.00D+00 NAtFMM=   60 NAOKFM=F Big=F
 Integral buffers will be    131072 words long.
 Raffenetti 1 integral format.
 Two-electron integral symmetry is turned on.
 One-electron integrals computed using PRISM.
 PrsmSu:  requested number of processors reduced to:  13 ShMem   1 Linda.
   1 Symmetry operations used in ECPInt.
 ECPInt:  NShTT=     780 NPrTT=    3001 LenC2=     759 LenP2D=    2437.
 LDataN:  DoStor=T MaxTD1= 8 Len=  415
 NBasis=    93 RedAO= T EigKep=  8.05D-03  NBF=    93
 NBsUse=    93 1.00D-06 EigRej= -1.00D+00 NBFU=    93
 Initial guess from the checkpoint file:  "ch3hgbr_gas_apfd_def2svp.chk"
 B after Tr=     0.000000   -0.000000   -0.000000
         Rot=    0.729129    0.180716    0.657419    0.059273 Ang=  86.37 deg.
 ExpMin= 5.64D-02 ExpMax= 1.13D+05 ExpMxC= 1.70D+04 IAcc=2 IRadAn=         4 AccDes= 0.00D+00
 Harris functional with IExCor=  205 and IRadAn=       4 diagonalized for initial guess.
 HarFok:  IExCor=  205 AccDes= 0.00D+00 IRadAn=         4 IDoV= 1 UseB2=F ITyADJ=14
 ICtDFT=  3500011 ScaDFX=  1.000000  1.000000  1.000000  1.000000
 Defaulting to unpruned grid for atomic number  80.
 FoFCou: FMM=F IPFlag=           0 FMFlag=      100000 FMFlg1=           0
         NFxFlg=           0 DoJE=T BraDBF=F KetDBF=T FulRan=T
         wScrn=  0.000000 ICntrl=       500 IOpCl=  0 I1Cent=   200000004 NGrid=           0
         NMat0=    1 NMatS0=      1 NMatT0=    0 NMatD0=    1 NMtDS0=    0 NMtDT0=    0
 Petite list used in FoFCou.
 Keep R1 ints in memory in canonical form, NReq=21302295.
 Requested convergence on RMS density matrix=1.00D-08 within  32 cycles.
 Requested convergence on MAX density matrix=1.00D-06.
 Requested convergence on             energy=1.00D-06.
 No special actions if energy rises.
 SCF Done:  E(RHF) =  -2764.23373828     A.U. after   11 cycles
            NFock= 11  Conv=0.72D-08     -V/T= 2.0382
 QCSCF skips out because SCF is already converged.
 ExpMin= 5.64D-02 ExpMax= 1.13D+05 ExpMxC= 1.70D+04 IAcc=3 IRadAn=         5 AccDes= 0.00D+00
 HarFok:  IExCor=  205 AccDes= 0.00D+00 IRadAn=         5 IDoV=-2 UseB2=F ITyADJ=14
 ICtDFT= 12500011 ScaDFX=  1.000000  1.000000  1.000000  1.000000
 Defaulting to unpruned grid for atomic number  80.
 Range of M.O.s used for correlation:    11    93
 NBasis=    93 NAE=    32 NBE=    32 NFC=    10 NFV=     0
 NROrb=     83 NOA=    22 NOB=    22 NVA=    61 NVB=    61
 Disk-based method using ON**2 memory for 22 occupieds at a time.
 Estimated scratch disk usage=    43985940 words.
 Actual    scratch disk usage=    40952340 words.
 GetIJB would need an additional   285476430 words of memory to use all  24 processors.
 JobTyp=1 Pass  1:  I=  11 to  32 NPSUse=  6 ParTrn=T ParDer=T DoDerP=T.
 Spin components of T(2) and E(2):
     alpha-alpha T2 =       0.3262435115D-01 E2=     -0.1219587063D+00
     alpha-beta  T2 =       0.1479403939D+00 E2=     -0.5146515329D+00
     beta-beta   T2 =       0.3262435115D-01 E2=     -0.1219587063D+00
 ANorm=    0.1101448635D+01
 E2 =    -0.7585689455D+00 EUMP2 =    -0.27649923072256D+04
          IDoAtm=111111
          Differentiating once with respect to electric field.
                with respect to dipole field.
          Differentiating once with respect to nuclear coordinates.
 Keep R1 ints in memory in canonical form, NReq=21305005.
          There are     1 degrees of freedom in the 1st order CPHF.  IDoFFX=0 NUNeed=     1.
 LinEq1:  Iter=  0 NonCon=     1 RMS=5.88D-03 Max=1.45D-01 NDo=     1
 AX will form     1 AO Fock derivatives at one time.
 LinEq1:  Iter=  1 NonCon=     1 RMS=1.42D-03 Max=1.94D-02 NDo=     1
 LinEq1:  Iter=  2 NonCon=     1 RMS=4.37D-04 Max=6.73D-03 NDo=     1
 LinEq1:  Iter=  3 NonCon=     1 RMS=1.12D-04 Max=1.75D-03 NDo=     1
 LinEq1:  Iter=  4 NonCon=     1 RMS=3.56D-05 Max=3.27D-04 NDo=     1
 LinEq1:  Iter=  5 NonCon=     1 RMS=8.43D-06 Max=1.45D-04 NDo=     1
 LinEq1:  Iter=  6 NonCon=     1 RMS=2.22D-06 Max=3.76D-05 NDo=     1
 LinEq1:  Iter=  7 NonCon=     1 RMS=7.98D-07 Max=1.80D-05 NDo=     1
 LinEq1:  Iter=  8 NonCon=     1 RMS=2.03D-07 Max=2.37D-06 NDo=     1
 LinEq1:  Iter=  9 NonCon=     1 RMS=4.11D-08 Max=6.15D-07 NDo=     1
 LinEq1:  Iter= 10 NonCon=     1 RMS=9.04D-09 Max=1.19D-07 NDo=     1
 LinEq1:  Iter= 11 NonCon=     1 RMS=2.32D-09 Max=2.67D-08 NDo=     1
 LinEq1:  Iter= 12 NonCon=     1 RMS=3.96D-10 Max=5.63D-09 NDo=     1
 LinEq1:  Iter= 13 NonCon=     0 RMS=5.94D-11 Max=5.45D-10 NDo=     1
 Linear equations converged to 1.000D-10 1.000D-09 after    13 iterations.
 End of Minotr F.D. properties file   721 does not exist.
 End of Minotr F.D. properties file   722 does not exist.
 End of Minotr F.D. properties file   788 does not exist.
 PrsmSu:  requested number of processors reduced to:  13 ShMem   1 Linda.
   1 Symmetry operations used in ECPInt.
 ECPInt:  NShTT=     780 NPrTT=    3001 LenC2=     759 LenP2D=    2437.
 LDataN:  DoStor=T MaxTD1= 9 Len=  602
 Calling FoFJK, ICntrl=  10002127 FMM=F ISym2X=0 I1Cent= 0 IOpClX= 0 NMat=1 NMatS=1 NMatT=0.
 ***** Axes restored to original set *****
 -------------------------------------------------------------------
 Center     Atomic                   Forces (Hartrees/Bohr)
 Number     Number              X              Y              Z
 -------------------------------------------------------------------
      1        6           0.001696719    0.001718498   -0.000004814
      2       80          -0.004446137   -0.004489364    0.000002223
      3        1          -0.000732768   -0.000377010   -0.000268323
      4        1          -0.000648769   -0.000472358    0.000347958
      5        1          -0.000311312   -0.000831796   -0.000076847
      6       35           0.004442266    0.004452030   -0.000000198
 -------------------------------------------------------------------
 Cartesian Forces:  Max     0.004489364 RMS     0.002206302

 GradGradGradGradGradGradGradGradGradGradGradGradGradGradGradGradGradGrad
 Berny optimization.
 Using GEDIIS/GDIIS optimizer.
 FormGI is forming the generalized inverse of G from B-inverse, IUseBI=4.
 Internal  Forces:  Max     0.006289208 RMS     0.001564485
 Search for a local minimum.
 Step number   2 out of a maximum of   27
 All quantities printed in internal units (Hartrees-Bohrs-Radians)
 Mixed Optimization -- RFO/linear search
 Update second derivatives using D2CorX and points    1    2
 DE= -1.92D-03 DEPred=-1.69D-03 R= 1.14D+00
 TightC=F SS=  1.41D+00  RLast= 1.35D-01 DXNew= 5.0454D-01 4.0421D-01
 Trust test= 1.14D+00 RLast= 1.35D-01 DXMaxT set to 4.04D-01
 The second derivative matrix:
                          R1        R2        R3        R4        R5
           R1           0.16076
           R2          -0.00329   0.34602
           R3          -0.00328   0.00072   0.34601
           R4          -0.00329   0.00072   0.00072   0.34602
           R5           0.01750  -0.00320  -0.00320  -0.00320   0.18031
           A1          -0.00055   0.00010   0.00010   0.00010   0.00135
           A2           0.00041  -0.00009  -0.00009  -0.00009   0.00057
           A3           0.00305  -0.00063  -0.00063  -0.00063  -0.00157
           A4           0.00158  -0.00031  -0.00031  -0.00031  -0.00217
           A5          -0.00195   0.00040   0.00040   0.00040   0.00069
           A6          -0.00248   0.00051   0.00051   0.00051   0.00113
           A7          -0.00032   0.00007   0.00007   0.00007   0.00026
           A8           0.00003  -0.00001  -0.00001  -0.00001  -0.00003
           D1           0.00327  -0.00066  -0.00066  -0.00066  -0.00267
           D2          -0.00274   0.00056   0.00056   0.00056   0.00224
           D3           0.00364  -0.00074  -0.00074  -0.00074  -0.00297
           D4           0.00638  -0.00129  -0.00129  -0.00129  -0.00520
                          A1        A2        A3        A4        A5
           A1           0.15996
           A2          -0.00002   0.16001
           A3           0.00003   0.00009   0.16025
           A4           0.00005   0.00005   0.00003   0.15994
           A5          -0.00001  -0.00006  -0.00018  -0.00004   0.16013
           A6          -0.00002  -0.00007  -0.00022  -0.00004   0.00016
           A7          -0.00001  -0.00001  -0.00002   0.00000   0.00002
           A8           0.00000   0.00000   0.00000  -0.00000  -0.00000
           D1           0.00006   0.00010   0.00020  -0.00002  -0.00016
           D2          -0.00005  -0.00008  -0.00017   0.00002   0.00013
           D3           0.00007   0.00011   0.00022  -0.00002  -0.00017
           D4           0.00012   0.00019   0.00039  -0.00004  -0.00031
                          A6        A7        A8        D1        D2
           A6           0.16018
           A7           0.00002   0.00230
           A8          -0.00000  -0.00000   0.00230
           D1          -0.00018  -0.00001   0.00000   0.00243
           D2           0.00015   0.00001  -0.00000  -0.00011   0.00239
           D3          -0.00020  -0.00001   0.00000   0.00014  -0.00012
           D4          -0.00035  -0.00002   0.00000   0.00024  -0.00021
                          D3        D4
           D3           0.00245
           D4           0.00027   0.00278
 ITU=  1  0
 Use linear search instead of GDIIS.
     Eigenvalues ---    0.00230   0.00230   0.05048   0.05656   0.08766
     Eigenvalues ---    0.14871   0.16000   0.16301   0.19021   0.34530
     Eigenvalues ---    0.34530   0.34790
 RFO step:  Lambda=-1.76548519D-04 EMin= 2.29999348D-03
 Quartic linear search produced a step of  0.16969.
 Iteration  1 RMS(Cart)=  0.01706518 RMS(Int)=  0.00015585
 Iteration  2 RMS(Cart)=  0.00021802 RMS(Int)=  0.00003198
 Iteration  3 RMS(Cart)=  0.00000004 RMS(Int)=  0.00003198
 Variable       Old X    -DE/DX   Delta X   Delta X   Delta X     New X
                                 (Linear)    (Quad)   (Total)
    R1        3.89566  -0.00003  -0.01787   0.01314  -0.00473   3.89093
    R2        2.07330  -0.00009   0.00150  -0.00139   0.00012   2.07342
    R3        2.07330  -0.00009   0.00150  -0.00138   0.00012   2.07342
    R4        2.07330  -0.00010   0.00150  -0.00139   0.00011   2.07341
    R5        4.55990   0.00629   0.01387   0.02177   0.03564   4.59554
    A1        1.89902   0.00019  -0.00049   0.00682   0.00635   1.90537
    A2        1.89889   0.00030  -0.00050   0.00700   0.00651   1.90541
    A3        1.89881   0.00062  -0.00051   0.00724   0.00672   1.90553
    A4        1.92211  -0.00005   0.00048  -0.00665  -0.00626   1.91585
    A5        1.92227  -0.00048   0.00050  -0.00693  -0.00648   1.91578
    A6        1.92227  -0.00055   0.00050  -0.00694  -0.00649   1.91578
    A7        3.14208  -0.00006   0.00009  -0.02688  -0.02679   3.11529
    A8        3.14136   0.00000  -0.00007   0.00258   0.00251   3.14387
    D1        2.07995   0.00038  -0.00062   0.00863   0.00798   2.08793
    D2       -2.07999  -0.00032   0.00062  -0.00861  -0.00797  -2.08796
    D3        2.07984   0.00042  -0.00063   0.00882   0.00817   2.08801
    D4       -2.12336   0.00074  -0.00124   0.01743   0.01614  -2.10722
         Item               Value     Threshold  Converged?
 Maximum Force            0.006289     0.000450     NO 
 RMS     Force            0.001564     0.000300     NO 
 Maximum Displacement     0.043056     0.001800     NO 
 RMS     Displacement     0.017144     0.001200     NO 
 Predicted change in Energy=-1.322958D-04
 GradGradGradGradGradGradGradGradGradGradGradGradGradGradGradGradGradGrad

                          Input orientation:                          
 ---------------------------------------------------------------------
 Center     Atomic      Atomic             Coordinates (Angstroms)
 Number     Number       Type             X           Y           Z
 ---------------------------------------------------------------------
      1          6           0       -4.863315    1.595642   -0.000157
      2         80           0       -3.391241    3.035233   -0.003854
      3          1           0       -4.637512    0.851434    0.773811
      4          1           0       -4.895141    1.110303   -0.983668
      5          1           0       -5.830151    2.069301    0.211339
      6         35           0       -1.697289    4.780056    0.002529
 ---------------------------------------------------------------------
                    Distance matrix (angstroms):
                    1          2          3          4          5
     1  C    0.000000
     2  Hg   2.058991   0.000000
     3  H    1.097205   2.631906   0.000000
     4  H    1.097206   2.631941   1.795026   0.000000
     5  H    1.097203   2.632037   1.794983   1.794983   0.000000
     6  Br   4.490459   2.431855   4.967278   4.966480   4.946953
                    6
     6  Br   0.000000
 Stoichiometry    CH3BrHg
 Framework group  C1[X(CH3BrHg)]
 Deg. of freedom    12
 Full point group                 C1      NOp   1
 Largest Abelian subgroup         C1      NOp   1
 Largest concise Abelian subgroup C1      NOp   1
                         Standard orientation:                         
 ---------------------------------------------------------------------
 Center     Atomic      Atomic             Coordinates (Angstroms)
 Number     Number       Type             X           Y           Z
 ---------------------------------------------------------------------
      1          6           0        2.586848   -0.033549    0.000007
      2         80           0        0.528267    0.007528   -0.000002
      3          1           0        2.958036    0.509638    0.878087
      4          1           0        2.956783    0.444359   -0.915752
      5          1           0        2.926564   -1.076155    0.037709
      6         35           0       -1.903538   -0.007964    0.000002
 ---------------------------------------------------------------------
 Rotational constants (GHZ):         154.0690092           1.1219067           1.1218249
 Standard basis: def2SVP (5D, 7F)
 There are   102 symmetry adapted cartesian basis functions of A   symmetry.
 There are    93 symmetry adapted basis functions of A   symmetry.
    93 basis functions,   191 primitive gaussians,   102 cartesian basis functions
    32 alpha electrons       32 beta electrons
       nuclear repulsion energy       240.7410687396 Hartrees.
 NAtoms=    6 NActive=    6 NUniq=    6 SFac= 1.00D+00 NAtFMM=   60 NAOKFM=F Big=F
 Integral buffers will be    131072 words long.
 Raffenetti 1 integral format.
 Two-electron integral symmetry is turned on.
 One-electron integrals computed using PRISM.
 PrsmSu:  requested number of processors reduced to:  13 ShMem   1 Linda.
   1 Symmetry operations used in ECPInt.
 ECPInt:  NShTT=     780 NPrTT=    3001 LenC2=     759 LenP2D=    2436.
 LDataN:  DoStor=T MaxTD1= 8 Len=  415
 NBasis=    93 RedAO= T EigKep=  8.14D-03  NBF=    93
 NBsUse=    93 1.00D-06 EigRej= -1.00D+00 NBFU=    93
 Initial guess from the checkpoint file:  "ch3hgbr_gas_apfd_def2svp.chk"
 B after Tr=     0.000000   -0.000000   -0.000000
         Rot=    0.999851    0.017271   -0.000003    0.000163 Ang=   1.98 deg.
 ExpMin= 5.64D-02 ExpMax= 1.13D+05 ExpMxC= 1.70D+04 IAcc=2 IRadAn=         4 AccDes= 0.00D+00
 Harris functional with IExCor=  205 and IRadAn=       4 diagonalized for initial guess.
 HarFok:  IExCor=  205 AccDes= 0.00D+00 IRadAn=         4 IDoV= 1 UseB2=F ITyADJ=14
 ICtDFT=  3500011 ScaDFX=  1.000000  1.000000  1.000000  1.000000
 Defaulting to unpruned grid for atomic number  80.
 FoFCou: FMM=F IPFlag=           0 FMFlag=      100000 FMFlg1=           0
         NFxFlg=           0 DoJE=T BraDBF=F KetDBF=T FulRan=T
         wScrn=  0.000000 ICntrl=       500 IOpCl=  0 I1Cent=   200000004 NGrid=           0
         NMat0=    1 NMatS0=      1 NMatT0=    0 NMatD0=    1 NMtDS0=    0 NMtDT0=    0
 Petite list used in FoFCou.
 Keep R1 ints in memory in canonical form, NReq=21302256.
 Requested convergence on RMS density matrix=1.00D-08 within  32 cycles.
 Requested convergence on MAX density matrix=1.00D-06.
 Requested convergence on             energy=1.00D-06.
 No special actions if energy rises.
 SCF Done:  E(RHF) =  -2764.23424727     A.U. after   10 cycles
            NFock= 10  Conv=0.80D-08     -V/T= 2.0382
 QCSCF skips out because SCF is already converged.
 ExpMin= 5.64D-02 ExpMax= 1.13D+05 ExpMxC= 1.70D+04 IAcc=3 IRadAn=         5 AccDes= 0.00D+00
 HarFok:  IExCor=  205 AccDes= 0.00D+00 IRadAn=         5 IDoV=-2 UseB2=F ITyADJ=14
 ICtDFT= 12500011 ScaDFX=  1.000000  1.000000  1.000000  1.000000
 Defaulting to unpruned grid for atomic number  80.
 Range of M.O.s used for correlation:    11    93
 NBasis=    93 NAE=    32 NBE=    32 NFC=    10 NFV=     0
 NROrb=     83 NOA=    22 NOB=    22 NVA=    61 NVB=    61
 Disk-based method using ON**2 memory for 22 occupieds at a time.
 Estimated scratch disk usage=    43693314 words.
 Actual    scratch disk usage=    40557826 words.
 GetIJB would need an additional   285475692 words of memory to use all  24 processors.
 JobTyp=1 Pass  1:  I=  11 to  32 NPSUse=  6 ParTrn=T ParDer=T DoDerP=T.
 Spin components of T(2) and E(2):
     alpha-alpha T2 =       0.3258997035D-01 E2=     -0.1218375499D+00
     alpha-beta  T2 =       0.1479826903D+00 E2=     -0.5144960298D+00
     beta-beta   T2 =       0.3258997035D-01 E2=     -0.1218375499D+00
 ANorm=    0.1101436621D+01
 E2 =    -0.7581711297D+00 EUMP2 =    -0.27649924183948D+04
          IDoAtm=111111
          Differentiating once with respect to electric field.
                with respect to dipole field.
          Differentiating once with respect to nuclear coordinates.
 Keep R1 ints in memory in canonical form, NReq=21304797.
          There are     1 degrees of freedom in the 1st order CPHF.  IDoFFX=0 NUNeed=     1.
 LinEq1:  Iter=  0 NonCon=     1 RMS=5.90D-03 Max=1.45D-01 NDo=     1
 AX will form     1 AO Fock derivatives at one time.
 LinEq1:  Iter=  1 NonCon=     1 RMS=1.42D-03 Max=1.93D-02 NDo=     1
 LinEq1:  Iter=  2 NonCon=     1 RMS=4.38D-04 Max=6.58D-03 NDo=     1
 LinEq1:  Iter=  3 NonCon=     1 RMS=1.11D-04 Max=1.66D-03 NDo=     1
 LinEq1:  Iter=  4 NonCon=     1 RMS=3.55D-05 Max=3.29D-04 NDo=     1
 LinEq1:  Iter=  5 NonCon=     1 RMS=8.36D-06 Max=1.36D-04 NDo=     1
 LinEq1:  Iter=  6 NonCon=     1 RMS=2.16D-06 Max=3.59D-05 NDo=     1
 LinEq1:  Iter=  7 NonCon=     1 RMS=7.77D-07 Max=1.77D-05 NDo=     1
 LinEq1:  Iter=  8 NonCon=     1 RMS=2.01D-07 Max=2.31D-06 NDo=     1
 LinEq1:  Iter=  9 NonCon=     1 RMS=4.13D-08 Max=6.11D-07 NDo=     1
 LinEq1:  Iter= 10 NonCon=     1 RMS=8.96D-09 Max=1.19D-07 NDo=     1
 LinEq1:  Iter= 11 NonCon=     1 RMS=2.33D-09 Max=2.60D-08 NDo=     1
 LinEq1:  Iter= 12 NonCon=     1 RMS=4.08D-10 Max=5.64D-09 NDo=     1
 LinEq1:  Iter= 13 NonCon=     0 RMS=7.24D-11 Max=6.88D-10 NDo=     1
 Linear equations converged to 1.000D-10 1.000D-09 after    13 iterations.
 End of Minotr F.D. properties file   721 does not exist.
 End of Minotr F.D. properties file   722 does not exist.
 End of Minotr F.D. properties file   788 does not exist.
 PrsmSu:  requested number of processors reduced to:  13 ShMem   1 Linda.
   1 Symmetry operations used in ECPInt.
 ECPInt:  NShTT=     780 NPrTT=    3001 LenC2=     759 LenP2D=    2436.
 LDataN:  DoStor=T MaxTD1= 9 Len=  602
 Calling FoFJK, ICntrl=  10002127 FMM=F ISym2X=0 I1Cent= 0 IOpClX= 0 NMat=1 NMatS=1 NMatT=0.
 ***** Axes restored to original set *****
 -------------------------------------------------------------------
 Center     Atomic                   Forces (Hartrees/Bohr)
 Number     Number              X              Y              Z
 -------------------------------------------------------------------
      1        6           0.000860744   -0.000581206   -0.000173351
      2       80          -0.001696118    0.000449552    0.000257228
      3        1          -0.000207261   -0.000148304   -0.000078427
      4        1          -0.000167420   -0.000161163    0.000084159
      5        1           0.000084856    0.000148305    0.000010424
      6       35           0.001125200    0.000292817   -0.000100033
 -------------------------------------------------------------------
 Cartesian Forces:  Max     0.001696118 RMS     0.000566526

 GradGradGradGradGradGradGradGradGradGradGradGradGradGradGradGradGradGrad
 Berny optimization.
 Using GEDIIS/GDIIS optimizer.
 FormGI is forming the generalized inverse of G from B-inverse, IUseBI=4.
 Internal  Forces:  Max     0.002810916 RMS     0.000737665
 Search for a local minimum.
 Step number   3 out of a maximum of   27
 All quantities printed in internal units (Hartrees-Bohrs-Radians)
 Mixed Optimization -- En-DIIS/RFO-DIIS
 Update second derivatives using D2CorX and points    1    2    3
 DE= -1.11D-04 DEPred=-1.32D-04 R= 8.40D-01
 TightC=F SS=  1.41D+00  RLast= 5.22D-02 DXNew= 6.7980D-01 1.5653D-01
 Trust test= 8.40D-01 RLast= 5.22D-02 DXMaxT set to 4.04D-01
 The second derivative matrix:
                          R1        R2        R3        R4        R5
           R1           0.16270
           R2          -0.00350   0.34605
           R3          -0.00350   0.00075   0.34604
           R4          -0.00356   0.00076   0.00076   0.34606
           R5           0.01989  -0.00392  -0.00389  -0.00371   0.12503
           A1           0.00393  -0.00048  -0.00048  -0.00048  -0.02328
           A2           0.00466  -0.00065  -0.00065  -0.00065  -0.02296
           A3           0.00304  -0.00070  -0.00069  -0.00067  -0.00688
           A4          -0.00325   0.00031   0.00031   0.00032   0.02418
           A5          -0.00392   0.00070   0.00070   0.00068   0.01432
           A6          -0.00426   0.00078   0.00078   0.00077   0.01380
           A7           0.01186  -0.00131  -0.00133  -0.00142  -0.05001
           A8          -0.00014   0.00001   0.00001   0.00001   0.00067
           D1           0.00258  -0.00058  -0.00058  -0.00058   0.00109
           D2          -0.00117   0.00037   0.00037   0.00036  -0.00501
           D3           0.00176  -0.00052  -0.00051  -0.00051   0.00581
           D4           0.00293  -0.00089  -0.00088  -0.00087   0.01082
                          A1        A2        A3        A4        A5
           A1           0.15704
           A2          -0.00292   0.15714
           A3          -0.00321  -0.00299   0.15987
           A4           0.00304   0.00302   0.00352   0.15691
           A5           0.00297   0.00283   0.00144  -0.00318   0.15796
           A6           0.00291   0.00276   0.00128  -0.00313  -0.00192
           A7           0.00198   0.00156  -0.00757  -0.00257   0.00309
           A8          -0.00004  -0.00003   0.00011   0.00005  -0.00004
           D1           0.00041   0.00045   0.00071  -0.00036  -0.00058
           D2          -0.00018  -0.00025  -0.00121   0.00010   0.00074
           D3           0.00029   0.00037   0.00148  -0.00019  -0.00093
           D4           0.00047   0.00062   0.00270  -0.00029  -0.00167
                          A6        A7        A8        D1        D2
           A6           0.15821
           A7           0.00336   0.03062
           A8          -0.00004  -0.00043   0.00231
           D1          -0.00059  -0.00064   0.00001   0.00239
           D2           0.00077   0.00283  -0.00005  -0.00013   0.00264
           D3          -0.00097  -0.00324   0.00005   0.00016  -0.00039
           D4          -0.00175  -0.00608   0.00010   0.00028  -0.00073
                          D3        D4
           D3           0.00276
           D4           0.00085   0.00388
 ITU=  1  1  0
 Use linear search instead of GDIIS.
     Eigenvalues ---    0.00230   0.00292   0.05048   0.05745   0.08602
     Eigenvalues ---    0.14198   0.16032   0.16196   0.17296   0.34530
     Eigenvalues ---    0.34530   0.34805
 RFO step:  Lambda=-1.76762603D-03 EMin= 2.29655296D-03
 Quartic linear search produced a step of -0.12434.
 Maximum step size (   0.404) exceeded in Quadratic search.
    -- Step size scaled by   0.672
 Iteration  1 RMS(Cart)=  0.10751464 RMS(Int)=  0.04309931
 Iteration  2 RMS(Cart)=  0.09886548 RMS(Int)=  0.00685289
 Iteration  3 RMS(Cart)=  0.00830131 RMS(Int)=  0.00041536
 Iteration  4 RMS(Cart)=  0.00000283 RMS(Int)=  0.00041533
 Iteration  5 RMS(Cart)=  0.00000000 RMS(Int)=  0.00041533
 Variable       Old X    -DE/DX   Delta X   Delta X   Delta X     New X
                                 (Linear)    (Quad)   (Total)
    R1        3.89093   0.00011   0.00059  -0.05145  -0.05087   3.84006
    R2        2.07342   0.00000  -0.00001   0.00327   0.00325   2.07667
    R3        2.07342   0.00000  -0.00001   0.00327   0.00325   2.07667
    R4        2.07341  -0.00001  -0.00001   0.00323   0.00322   2.07663
    R5        4.59554   0.00099  -0.00443   0.17066   0.16623   4.76177
    A1        1.90537   0.00017  -0.00079   0.02511   0.02465   1.93001
    A2        1.90541   0.00024  -0.00081   0.02582   0.02522   1.93063
    A3        1.90553  -0.00039  -0.00084   0.02375   0.02286   1.92838
    A4        1.91585  -0.00011   0.00078  -0.02394  -0.02423   1.89162
    A5        1.91578   0.00006   0.00081  -0.02495  -0.02480   1.89098
    A6        1.91578   0.00003   0.00081  -0.02496  -0.02475   1.89103
    A7        3.11529   0.00281   0.00333   0.35754   0.36087   3.47616
    A8        3.14387  -0.00004  -0.00031  -0.00048  -0.00079   3.14308
    D1        2.08793   0.00029  -0.00099   0.03201   0.03067   2.11859
    D2       -2.08796  -0.00001   0.00099  -0.03014  -0.02884  -2.11680
    D3        2.08801   0.00007  -0.00102   0.03099   0.02958   2.11759
    D4       -2.10722   0.00008  -0.00201   0.06113   0.05842  -2.04879
         Item               Value     Threshold  Converged?
 Maximum Force            0.002811     0.000450     NO 
 RMS     Force            0.000738     0.000300     NO 
 Maximum Displacement     0.453630     0.001800     NO 
 RMS     Displacement     0.198304     0.001200     NO 
 Predicted change in Energy=-9.405314D-04
 GradGradGradGradGradGradGradGradGradGradGradGradGradGradGradGradGradGrad

                          Input orientation:                          
 ---------------------------------------------------------------------
 Center     Atomic      Atomic             Coordinates (Angstroms)
 Number     Number       Type             X           Y           Z
 ---------------------------------------------------------------------
      1          6           0       -4.859397    1.619673    0.002661
      2         80           0       -3.631291    3.237615    0.060464
      3          1           0       -4.562149    0.881759    0.760794
      4          1           0       -4.818789    1.138112   -0.984301
      5          1           0       -5.898497    1.918291    0.199374
      6         35           0       -1.544526    4.646519   -0.038991
 ---------------------------------------------------------------------
                    Distance matrix (angstroms):
                    1          2          3          4          5
     1  C    0.000000
     2  Hg   2.032073   0.000000
     3  H    1.098926   2.628121   0.000000
     4  H    1.098929   2.628612   1.782397   0.000000
     5  H    1.098907   2.626810   1.781969   1.782002   0.000000
     6  Br   4.489087   2.519819   4.890718   4.891148   5.143647
                    6
     6  Br   0.000000
 Stoichiometry    CH3BrHg
 Framework group  C1[X(CH3BrHg)]
 Deg. of freedom    12
 Full point group                 C1      NOp   1
 Largest Abelian subgroup         C1      NOp   1
 Largest concise Abelian subgroup C1      NOp   1
                         Standard orientation:                         
 ---------------------------------------------------------------------
 Center     Atomic      Atomic             Coordinates (Angstroms)
 Number     Number       Type             X           Y           Z
 ---------------------------------------------------------------------
      1          6           0        2.521593    0.428444   -0.000020
      2         80           0        0.557678   -0.093436   -0.000004
      3          1           0        2.763128    1.023769    0.891545
      4          1           0        2.763519    1.024711   -0.890852
      5          1           0        3.157698   -0.467640   -0.000323
      6         35           0       -1.955089    0.094954    0.000001
 ---------------------------------------------------------------------
 Rotational constants (GHZ):          60.1638497           1.0800345           1.0681682
 Standard basis: def2SVP (5D, 7F)
 There are   102 symmetry adapted cartesian basis functions of A   symmetry.
 There are    93 symmetry adapted basis functions of A   symmetry.
    93 basis functions,   191 primitive gaussians,   102 cartesian basis functions
    32 alpha electrons       32 beta electrons
       nuclear repulsion energy       235.8241193749 Hartrees.
 NAtoms=    6 NActive=    6 NUniq=    6 SFac= 1.00D+00 NAtFMM=   60 NAOKFM=F Big=F
 Integral buffers will be    131072 words long.
 Raffenetti 1 integral format.
 Two-electron integral symmetry is turned on.
 One-electron integrals computed using PRISM.
 PrsmSu:  requested number of processors reduced to:  13 ShMem   1 Linda.
   1 Symmetry operations used in ECPInt.
 ECPInt:  NShTT=     780 NPrTT=    3001 LenC2=     759 LenP2D=    2437.
 LDataN:  DoStor=T MaxTD1= 8 Len=  415
 NBasis=    93 RedAO= T EigKep=  8.66D-03  NBF=    93
 NBsUse=    93 1.00D-06 EigRej= -1.00D+00 NBFU=    93
 Initial guess from the checkpoint file:  "ch3hgbr_gas_apfd_def2svp.chk"
 B after Tr=     0.000000   -0.000000   -0.000000
         Rot=    0.999797   -0.019898   -0.000060   -0.003305 Ang=  -2.31 deg.
 ExpMin= 5.64D-02 ExpMax= 1.13D+05 ExpMxC= 1.70D+04 IAcc=2 IRadAn=         4 AccDes= 0.00D+00
 Harris functional with IExCor=  205 and IRadAn=       4 diagonalized for initial guess.
 HarFok:  IExCor=  205 AccDes= 0.00D+00 IRadAn=         4 IDoV= 1 UseB2=F ITyADJ=14
 ICtDFT=  3500011 ScaDFX=  1.000000  1.000000  1.000000  1.000000
 Defaulting to unpruned grid for atomic number  80.
 FoFCou: FMM=F IPFlag=           0 FMFlag=      100000 FMFlg1=           0
         NFxFlg=           0 DoJE=T BraDBF=F KetDBF=T FulRan=T
         wScrn=  0.000000 ICntrl=       500 IOpCl=  0 I1Cent=   200000004 NGrid=           0
         NMat0=    1 NMatS0=      1 NMatT0=    0 NMatD0=    1 NMtDS0=    0 NMtDT0=    0
 Petite list used in FoFCou.
 Keep R1 ints in memory in canonical form, NReq=21302087.
 Requested convergence on RMS density matrix=1.00D-08 within  32 cycles.
 Requested convergence on MAX density matrix=1.00D-06.
 Requested convergence on             energy=1.00D-06.
 No special actions if energy rises.
 SCF Done:  E(RHF) =  -2764.22805603     A.U. after   13 cycles
            NFock= 13  Conv=0.41D-08     -V/T= 2.0382
 QCSCF skips out because SCF is already converged.
 ExpMin= 5.64D-02 ExpMax= 1.13D+05 ExpMxC= 1.70D+04 IAcc=3 IRadAn=         5 AccDes= 0.00D+00
 HarFok:  IExCor=  205 AccDes= 0.00D+00 IRadAn=         5 IDoV=-2 UseB2=F ITyADJ=14
 ICtDFT= 12500011 ScaDFX=  1.000000  1.000000  1.000000  1.000000
 Defaulting to unpruned grid for atomic number  80.
 Range of M.O.s used for correlation:    11    93
 NBasis=    93 NAE=    32 NBE=    32 NFC=    10 NFV=     0
 NROrb=     83 NOA=    22 NOB=    22 NVA=    61 NVB=    61
 Disk-based method using ON**2 memory for 22 occupieds at a time.
 Estimated scratch disk usage=    43906830 words.
 Actual    scratch disk usage=    40811790 words.
 GetIJB would need an additional   285476184 words of memory to use all  24 processors.
 JobTyp=1 Pass  1:  I=  11 to  32 NPSUse=  6 ParTrn=T ParDer=T DoDerP=T.
 Spin components of T(2) and E(2):
     alpha-alpha T2 =       0.3248327264D-01 E2=     -0.1214266508D+00
     alpha-beta  T2 =       0.1483933916D+00 E2=     -0.5140915996D+00
     beta-beta   T2 =       0.3248327264D-01 E2=     -0.1214266508D+00
 ANorm=    0.1101526185D+01
 E2 =    -0.7569449012D+00 EUMP2 =    -0.27649850009353D+04
          IDoAtm=111111
          Differentiating once with respect to electric field.
                with respect to dipole field.
          Differentiating once with respect to nuclear coordinates.
 Keep R1 ints in memory in canonical form, NReq=21304654.
          There are     1 degrees of freedom in the 1st order CPHF.  IDoFFX=0 NUNeed=     1.
 LinEq1:  Iter=  0 NonCon=     1 RMS=6.03D-03 Max=1.27D-01 NDo=     1
 AX will form     1 AO Fock derivatives at one time.
 LinEq1:  Iter=  1 NonCon=     1 RMS=1.42D-03 Max=1.80D-02 NDo=     1
 LinEq1:  Iter=  2 NonCon=     1 RMS=4.48D-04 Max=6.37D-03 NDo=     1
 LinEq1:  Iter=  3 NonCon=     1 RMS=1.04D-04 Max=1.54D-03 NDo=     1
 LinEq1:  Iter=  4 NonCon=     1 RMS=3.42D-05 Max=3.04D-04 NDo=     1
 LinEq1:  Iter=  5 NonCon=     1 RMS=8.71D-06 Max=9.87D-05 NDo=     1
 LinEq1:  Iter=  6 NonCon=     1 RMS=2.42D-06 Max=4.89D-05 NDo=     1
 LinEq1:  Iter=  7 NonCon=     1 RMS=8.94D-07 Max=1.35D-05 NDo=     1
 LinEq1:  Iter=  8 NonCon=     1 RMS=2.41D-07 Max=2.49D-06 NDo=     1
 LinEq1:  Iter=  9 NonCon=     1 RMS=5.17D-08 Max=5.89D-07 NDo=     1
 LinEq1:  Iter= 10 NonCon=     1 RMS=1.14D-08 Max=1.20D-07 NDo=     1
 LinEq1:  Iter= 11 NonCon=     1 RMS=3.18D-09 Max=3.67D-08 NDo=     1
 LinEq1:  Iter= 12 NonCon=     1 RMS=7.09D-10 Max=7.76D-09 NDo=     1
 LinEq1:  Iter= 13 NonCon=     1 RMS=1.89D-10 Max=1.69D-09 NDo=     1
 LinEq1:  Iter= 14 NonCon=     1 RMS=8.15D-11 Max=1.26D-09 NDo=     1
 LinEq1:  Iter= 15 NonCon=     0 RMS=1.82D-11 Max=2.65D-10 NDo=     1
 Linear equations converged to 1.000D-10 1.000D-09 after    15 iterations.
 End of Minotr F.D. properties file   721 does not exist.
 End of Minotr F.D. properties file   722 does not exist.
 End of Minotr F.D. properties file   788 does not exist.
 PrsmSu:  requested number of processors reduced to:  13 ShMem   1 Linda.
   1 Symmetry operations used in ECPInt.
 ECPInt:  NShTT=     780 NPrTT=    3001 LenC2=     759 LenP2D=    2437.
 LDataN:  DoStor=T MaxTD1= 9 Len=  602
 Calling FoFJK, ICntrl=  10002127 FMM=F ISym2X=0 I1Cent= 0 IOpClX= 0 NMat=1 NMatS=1 NMatT=0.
 ***** Axes restored to original set *****
 -------------------------------------------------------------------
 Center     Atomic                   Forces (Hartrees/Bohr)
 Number     Number              X              Y              Z
 -------------------------------------------------------------------
      1        6          -0.019448050   -0.005967411    0.002010036
      2       80           0.030787785    0.003790202   -0.003994059
      3        1           0.002869795    0.003123149    0.000913792
      4        1           0.002642530    0.003397287   -0.000771222
      5        1           0.000279282   -0.000764426   -0.000155344
      6       35          -0.017131343   -0.003578801    0.001996798
 -------------------------------------------------------------------
 Cartesian Forces:  Max     0.030787785 RMS     0.009846012

 GradGradGradGradGradGradGradGradGradGradGradGradGradGradGradGradGradGrad
 Berny optimization.
 Using GEDIIS/GDIIS optimizer.
 FormGI is forming the generalized inverse of G from B-inverse, IUseBI=4.
 Internal  Forces:  Max     0.032177326 RMS     0.009156903
 Search for a local minimum.
 Step number   4 out of a maximum of   27
 All quantities printed in internal units (Hartrees-Bohrs-Radians)
 Mixed Optimization -- RFO/linear search
 Update second derivatives using D2CorX and points    1    2    4    3
 DE=  7.42D-03 DEPred=-9.41D-04 R=-7.89D+00
 Trust test=-7.89D+00 RLast= 4.12D-01 DXMaxT set to 2.02D-01
 The second derivative matrix:
                          R1        R2        R3        R4        R5
           R1           0.08281
           R2           0.01415   0.34222
           R3           0.01412  -0.00307   0.34223
           R4           0.01422  -0.00308  -0.00308   0.34221
           R5           0.00920  -0.00281  -0.00277  -0.00280   0.14392
           A1          -0.01455   0.00329   0.00329   0.00327  -0.02086
           A2          -0.01516   0.00333   0.00333   0.00329  -0.01923
           A3          -0.01403   0.00322   0.00322   0.00330  -0.01079
           A4           0.01442  -0.00334  -0.00334  -0.00332   0.02259
           A5           0.01286  -0.00288  -0.00288  -0.00290   0.01454
           A6           0.01306  -0.00287  -0.00287  -0.00288   0.01329
           A7          -0.01031   0.00105   0.00105   0.00054  -0.01380
           A8          -0.00020   0.00003   0.00003   0.00003   0.00066
           D1          -0.00102  -0.00008  -0.00008  -0.00013   0.00544
           D2          -0.00065   0.00029   0.00029   0.00029  -0.00545
           D3           0.00046  -0.00034  -0.00033  -0.00035   0.00740
           D4           0.00110  -0.00062  -0.00062  -0.00063   0.01286
                          A1        A2        A3        A4        A5
           A1           0.15394
           A2          -0.00598   0.15421
           A3          -0.00727  -0.00753   0.15657
           A4           0.00616   0.00616   0.00726   0.15381
           A5           0.00635   0.00635   0.00503  -0.00646   0.15467
           A6           0.00622   0.00616   0.00509  -0.00637  -0.00525
           A7           0.00554   0.00782  -0.01605  -0.00434   0.00428
           A8          -0.00004  -0.00004   0.00009   0.00005  -0.00003
           D1           0.00069   0.00105  -0.00070  -0.00044  -0.00026
           D2          -0.00017  -0.00027  -0.00089   0.00005   0.00065
           D3           0.00038   0.00059   0.00081  -0.00019  -0.00080
           D4           0.00055   0.00086   0.00170  -0.00024  -0.00145
                          A6        A7        A8        D1        D2
           A6           0.15486
           A7           0.00302   0.10167
           A8          -0.00003  -0.00044   0.00231
           D1          -0.00045   0.00837  -0.00000   0.00346
           D2           0.00071   0.00151  -0.00004  -0.00027   0.00267
           D3          -0.00091   0.00047   0.00004   0.00058  -0.00046
           D4          -0.00162  -0.00104   0.00008   0.00085  -0.00083
                          D3        D4
           D3           0.00295
           D4           0.00111   0.00424
 ITU= -1  1  1  0
 Use linear search instead of GDIIS.
     Eigenvalues ---    0.00230   0.04011   0.05194   0.07799   0.08272
     Eigenvalues ---    0.10231   0.15218   0.16089   0.16638   0.33865
     Eigenvalues ---    0.34530   0.34530
 RFO step:  Lambda=-8.14203821D-06 EMin= 2.29975999D-03
 Quartic linear search produced a step of -0.93672.
 Iteration  1 RMS(Cart)=  0.11352578 RMS(Int)=  0.03357248
 Iteration  2 RMS(Cart)=  0.07221912 RMS(Int)=  0.00393507
 Iteration  3 RMS(Cart)=  0.00467003 RMS(Int)=  0.00002169
 Iteration  4 RMS(Cart)=  0.00000241 RMS(Int)=  0.00002150
 Iteration  5 RMS(Cart)=  0.00000000 RMS(Int)=  0.00002150
 Variable       Old X    -DE/DX   Delta X   Delta X   Delta X     New X
                                 (Linear)    (Quad)   (Total)
    R1        3.84006   0.00836   0.04765   0.00895   0.05660   3.89666
    R2        2.07667  -0.00069  -0.00305  -0.00053  -0.00358   2.07309
    R3        2.07667  -0.00070  -0.00305  -0.00053  -0.00358   2.07309
    R4        2.07663  -0.00050  -0.00302  -0.00052  -0.00354   2.07310
    R5        4.76177  -0.01627  -0.15571  -0.00202  -0.15773   4.60404
    A1        1.93001  -0.00222  -0.02309   0.00006  -0.02304   1.90697
    A2        1.93063  -0.00341  -0.02363  -0.00007  -0.02371   1.90692
    A3        1.92838   0.00354  -0.02141  -0.00033  -0.02174   1.90664
    A4        1.89162   0.00144   0.02269   0.00023   0.02298   1.91460
    A5        1.89098   0.00004   0.02323   0.00005   0.02332   1.91430
    A6        1.89103   0.00070   0.02318   0.00007   0.02328   1.91431
    A7        3.47616  -0.03218  -0.33803   0.00312  -0.33491   3.14125
    A8        3.14308  -0.00000   0.00074  -0.01415  -0.01341   3.12967
    D1        2.11859  -0.00392  -0.02873   0.00018  -0.02853   2.09006
    D2       -2.11680   0.00053   0.02702   0.00010   0.02709  -2.08971
    D3        2.11759  -0.00158  -0.02771  -0.00024  -0.02793   2.08966
    D4       -2.04879  -0.00210  -0.05473  -0.00034  -0.05503  -2.10382
         Item               Value     Threshold  Converged?
 Maximum Force            0.032177     0.000450     NO 
 RMS     Force            0.009157     0.000300     NO 
 Maximum Displacement     0.424245     0.001800     NO 
 RMS     Displacement     0.184416     0.001200     NO 
 Predicted change in Energy=-3.837432D-04
 GradGradGradGradGradGradGradGradGradGradGradGradGradGradGradGradGradGrad

                          Input orientation:                          
 ---------------------------------------------------------------------
 Center     Atomic      Atomic             Coordinates (Angstroms)
 Number     Number       Type             X           Y           Z
 ---------------------------------------------------------------------
      1          6           0       -4.864195    1.594919   -0.000321
      2         80           0       -3.406790    3.053652   -0.003893
      3          1           0       -4.631209    0.852484    0.772978
      4          1           0       -4.891918    1.108727   -0.983342
      5          1           0       -5.836817    2.056100    0.211350
      6         35           0       -1.683719    4.776088    0.003228
 ---------------------------------------------------------------------
                    Distance matrix (angstroms):
                    1          2          3          4          5
     1  C    0.000000
     2  Hg   2.062024   0.000000
     3  H    1.097034   2.635882   0.000000
     4  H    1.097033   2.635841   1.793959   0.000000
     5  H    1.097036   2.635616   1.793769   1.793777   0.000000
     6  Br   4.498363   2.436351   4.967382   4.971458   4.968890
                    6
     6  Br   0.000000
 Stoichiometry    CH3BrHg
 Framework group  C1[X(CH3BrHg)]
 Deg. of freedom    12
 Full point group                 C1      NOp   1
 Largest Abelian subgroup         C1      NOp   1
 Largest concise Abelian subgroup C1      NOp   1
                         Standard orientation:                         
 ---------------------------------------------------------------------
 Center     Atomic      Atomic             Coordinates (Angstroms)
 Number     Number       Type             X           Y           Z
 ---------------------------------------------------------------------
      1          6           0        2.591276   -0.005996   -0.000101
      2         80           0        0.529265    0.001346    0.000032
      3          1           0        2.950099   -0.877735    0.560969
      4          1           0        2.956422    0.914047    0.472837
      5          1           0        2.952573   -0.058165   -1.034620
      6         35           0       -1.907085   -0.001424   -0.000033
 ---------------------------------------------------------------------
 Rotational constants (GHZ):         155.7850280           1.1177973           1.1177936
 Standard basis: def2SVP (5D, 7F)
 There are   102 symmetry adapted cartesian basis functions of A   symmetry.
 There are    93 symmetry adapted basis functions of A   symmetry.
    93 basis functions,   191 primitive gaussians,   102 cartesian basis functions
    32 alpha electrons       32 beta electrons
       nuclear repulsion energy       240.3351973422 Hartrees.
 NAtoms=    6 NActive=    6 NUniq=    6 SFac= 1.00D+00 NAtFMM=   60 NAOKFM=F Big=F
 Integral buffers will be    131072 words long.
 Raffenetti 1 integral format.
 Two-electron integral symmetry is turned on.
 One-electron integrals computed using PRISM.
 PrsmSu:  requested number of processors reduced to:  13 ShMem   1 Linda.
   1 Symmetry operations used in ECPInt.
 ECPInt:  NShTT=     780 NPrTT=    3001 LenC2=     759 LenP2D=    2436.
 LDataN:  DoStor=T MaxTD1= 8 Len=  415
 NBasis=    93 RedAO= T EigKep=  8.17D-03  NBF=    93
 NBsUse=    93 1.00D-06 EigRej= -1.00D+00 NBFU=    93
 Lowest energy guess from the checkpoint file:  "ch3hgbr_gas_apfd_def2svp.chk"
 B after Tr=     0.000000    0.000000   -0.000000
         Rot=    0.719850   -0.694122   -0.002263    0.002368 Ang= -87.92 deg.
 B after Tr=     0.000000   -0.000000    0.000000
         Rot=    1.000000   -0.000000    0.000000   -0.000000 Ang=   0.00 deg.
 Keep R1 ints in memory in canonical form, NReq=21302256.
 Requested convergence on RMS density matrix=1.00D-08 within  32 cycles.
 Requested convergence on MAX density matrix=1.00D-06.
 Requested convergence on             energy=1.00D-06.
 No special actions if energy rises.
 SCF Done:  E(RHF) =  -2764.23450421     A.U. after   12 cycles
            NFock= 12  Conv=0.34D-08     -V/T= 2.0382
 QCSCF skips out because SCF is already converged.
 ExpMin= 5.64D-02 ExpMax= 1.13D+05 ExpMxC= 1.70D+04 IAcc=3 IRadAn=         5 AccDes= 0.00D+00
 HarFok:  IExCor=  205 AccDes= 0.00D+00 IRadAn=         5 IDoV=-2 UseB2=F ITyADJ=14
 ICtDFT= 12500011 ScaDFX=  1.000000  1.000000  1.000000  1.000000
 Defaulting to unpruned grid for atomic number  80.
 Range of M.O.s used for correlation:    11    93
 NBasis=    93 NAE=    32 NBE=    32 NFC=    10 NFV=     0
 NROrb=     83 NOA=    22 NOB=    22 NVA=    61 NVB=    61
 Disk-based method using ON**2 memory for 22 occupieds at a time.
 Estimated scratch disk usage=    43693314 words.
 Actual    scratch disk usage=    40557826 words.
 GetIJB would need an additional   285475494 words of memory to use all  24 processors.
 JobTyp=1 Pass  1:  I=  11 to  32 NPSUse=  6 ParTrn=T ParDer=T DoDerP=T.
 Spin components of T(2) and E(2):
     alpha-alpha T2 =       0.3257623647D-01 E2=     -0.1217777745D+00
     alpha-beta  T2 =       0.1480053544D+00 E2=     -0.5143947156D+00
     beta-beta   T2 =       0.3257623647D-01 E2=     -0.1217777745D+00
 ANorm=    0.1101434441D+01
 E2 =    -0.7579502646D+00 EUMP2 =    -0.27649924544792D+04
          IDoAtm=111111
          Differentiating once with respect to electric field.
                with respect to dipole field.
          Differentiating once with respect to nuclear coordinates.
 Keep R1 ints in memory in canonical form, NReq=21304641.
          There are     1 degrees of freedom in the 1st order CPHF.  IDoFFX=0 NUNeed=     1.
 LinEq1:  Iter=  0 NonCon=     1 RMS=5.91D-03 Max=1.49D-01 NDo=     1
 AX will form     1 AO Fock derivatives at one time.
 LinEq1:  Iter=  1 NonCon=     1 RMS=1.42D-03 Max=1.92D-02 NDo=     1
 LinEq1:  Iter=  2 NonCon=     1 RMS=4.38D-04 Max=6.75D-03 NDo=     1
 LinEq1:  Iter=  3 NonCon=     1 RMS=1.11D-04 Max=1.72D-03 NDo=     1
 LinEq1:  Iter=  4 NonCon=     1 RMS=3.55D-05 Max=2.82D-04 NDo=     1
 LinEq1:  Iter=  5 NonCon=     1 RMS=8.33D-06 Max=1.38D-04 NDo=     1
 LinEq1:  Iter=  6 NonCon=     1 RMS=2.13D-06 Max=3.30D-05 NDo=     1
 LinEq1:  Iter=  7 NonCon=     1 RMS=7.66D-07 Max=1.81D-05 NDo=     1
 LinEq1:  Iter=  8 NonCon=     1 RMS=1.99D-07 Max=2.26D-06 NDo=     1
 LinEq1:  Iter=  9 NonCon=     1 RMS=4.11D-08 Max=6.09D-07 NDo=     1
 LinEq1:  Iter= 10 NonCon=     1 RMS=8.74D-09 Max=1.17D-07 NDo=     1
 LinEq1:  Iter= 11 NonCon=     1 RMS=2.30D-09 Max=2.53D-08 NDo=     1
 LinEq1:  Iter= 12 NonCon=     1 RMS=4.05D-10 Max=5.76D-09 NDo=     1
 LinEq1:  Iter= 13 NonCon=     0 RMS=6.29D-11 Max=6.91D-10 NDo=     1
 Linear equations converged to 1.000D-10 1.000D-09 after    13 iterations.
 End of Minotr F.D. properties file   721 does not exist.
 End of Minotr F.D. properties file   722 does not exist.
 End of Minotr F.D. properties file   788 does not exist.
 PrsmSu:  requested number of processors reduced to:  13 ShMem   1 Linda.
   1 Symmetry operations used in ECPInt.
 ECPInt:  NShTT=     780 NPrTT=    3001 LenC2=     759 LenP2D=    2436.
 LDataN:  DoStor=T MaxTD1= 9 Len=  602
 Calling FoFJK, ICntrl=  10002127 FMM=F ISym2X=0 I1Cent= 0 IOpClX= 0 NMat=1 NMatS=1 NMatT=0.
 ***** Axes restored to original set *****
 -------------------------------------------------------------------
 Center     Atomic                   Forces (Hartrees/Bohr)
 Number     Number              X              Y              Z
 -------------------------------------------------------------------
      1        6           0.000500108    0.000581349   -0.000175639
      2       80          -0.000501812   -0.000571319    0.000273942
      3        1           0.000186269   -0.000003733    0.000123230
      4        1           0.000074375   -0.000011986   -0.000143807
      5        1          -0.000062161    0.000179632    0.000030308
      6       35          -0.000196779   -0.000173942   -0.000108033
 -------------------------------------------------------------------
 Cartesian Forces:  Max     0.000581349 RMS     0.000285398

 GradGradGradGradGradGradGradGradGradGradGradGradGradGradGradGradGradGrad
 Berny optimization.
 Using GEDIIS/GDIIS optimizer.
 FormGI is forming the generalized inverse of G from B-inverse, IUseBI=4.
 Internal  Forces:  Max     0.001020828 RMS     0.000272092
 Search for a local minimum.
 Step number   5 out of a maximum of   27
 All quantities printed in internal units (Hartrees-Bohrs-Radians)
 Mixed Optimization -- En-DIIS/RFO-DIIS
 Update second derivatives using D2CorX and points    1    2    4    3    5
 DE= -3.61D-05 DEPred=-3.84D-04 R= 9.40D-02
 Trust test= 9.40D-02 RLast= 3.19D-02 DXMaxT set to 1.01D-01
 The second derivative matrix:
                          R1        R2        R3        R4        R5
           R1           0.12863
           R2           0.00547   0.34397
           R3           0.00539  -0.00132   0.34398
           R4           0.00538  -0.00132  -0.00131   0.34400
           R5           0.03448  -0.00572  -0.00577  -0.00588   0.14250
           A1          -0.01138   0.00281   0.00279   0.00275  -0.01665
           A2          -0.01138   0.00269   0.00268   0.00263  -0.01696
           A3          -0.00842   0.00203   0.00203   0.00210  -0.00666
           A4           0.01378  -0.00325  -0.00324  -0.00322   0.01841
           A5           0.00732  -0.00184  -0.00183  -0.00184   0.01085
           A6           0.00734  -0.00176  -0.00175  -0.00176   0.01127
           A7           0.00294   0.00002  -0.00006  -0.00063  -0.00738
           A8          -0.00328   0.00038   0.00039   0.00042  -0.00490
           D1           0.00574  -0.00113  -0.00114  -0.00121   0.00705
           D2          -0.00517   0.00107   0.00108   0.00109  -0.00642
           D3           0.00559  -0.00127  -0.00127  -0.00129   0.00622
           D4           0.01076  -0.00234  -0.00235  -0.00237   0.01264
                          A1        A2        A3        A4        A5
           A1           0.15428
           A2          -0.00562   0.15455
           A3          -0.00708  -0.00702   0.15660
           A4           0.00611   0.00599   0.00756   0.15359
           A5           0.00598   0.00585   0.00463  -0.00647   0.15522
           A6           0.00587   0.00572   0.00445  -0.00631  -0.00464
           A7           0.00873   0.00941  -0.01268  -0.00761   0.00129
           A8          -0.00056  -0.00052   0.00017   0.00023   0.00033
[...]
 Atom     5 has atomic number  1 and mass   1.00783
 Atom     6 has atomic number 35 and mass  78.91834
 Molecular mass:   295.91241 amu.
 Principal axes and moments of inertia in atomic units:
                           1         2         3
     Eigenvalues --    11.590481612.787761612.78785
           X            1.00000  -0.00000   0.00000
           Y            0.00000   1.00000   0.00144
           Z           -0.00000  -0.00144   1.00000
 This molecule is an asymmetric top.
 Rotational symmetry number  1.
 Rotational temperatures (Kelvin)      7.47285     0.05370     0.05370
 Rotational constants (GHZ):         155.70899     1.11902     1.11902
 Zero-point vibrational energy      98804.9 (Joules/Mol)
                                   23.61495 (Kcal/Mol)
 Warning -- explicit consideration of   4 degrees of freedom as
           vibrations may cause significant error
 Vibrational temperatures:    172.93   172.93   360.76   817.61  1191.30
          (Kelvin)           1191.30  1804.68  2106.62  2106.63  4484.97
                             4678.63  4678.66
 
 Zero-point correction=                           0.037633 (Hartree/Particle)
 Thermal correction to Energy=                    0.042689
 Thermal correction to Enthalpy=                  0.043633
 Thermal correction to Gibbs Free Energy=         0.007178
 Sum of electronic and zero-point Energies=          -2764.954826
 Sum of electronic and thermal Energies=             -2764.949770
 Sum of electronic and thermal Enthalpies=           -2764.948826
 Sum of electronic and thermal Free Energies=        -2764.985281
 
                     E (Thermal)             CV                S
                      KCal/Mol        Cal/Mol-Kelvin    Cal/Mol-Kelvin
 Total                   26.788             14.241             76.726
 Electronic               0.000              0.000              0.000
 Translational            0.889              2.981             42.952
 Rotational               0.889              2.981             24.914
 Vibrational             25.010              8.280              8.859
 Vibration     1          0.609              1.932              3.097
 Vibration     2          0.609              1.932              3.097
 Vibration     3          0.663              1.762              1.725
 Vibration     4          0.924              1.100              0.508
                       Q            Log10(Q)             Ln(Q)
 Total Bot       0.499217D-03         -3.301710         -7.602469
 Total V=0       0.101898D+15         14.008168         32.254998
 Vib (Bot)       0.401437D-16        -16.396383        -37.754066
 Vib (Bot)    1  0.170021D+01          0.230504          0.530754
 Vib (Bot)    2  0.170020D+01          0.230500          0.530746
 Vib (Bot)    3  0.778118D+00         -0.108955         -0.250878
 Vib (Bot)    4  0.271296D+00         -0.566557         -1.304546
 Vib (V=0)       0.819399D+01          0.913495          2.103401
 Vib (V=0)    1  0.227221D+01          0.356448          0.820753
 Vib (V=0)    2  0.227220D+01          0.356446          0.820747
 Vib (V=0)    3  0.142491D+01          0.153789          0.354112
 Vib (V=0)    4  0.106886D+01          0.028921          0.066592
 Electronic      0.100000D+01          0.000000          0.000000
 Translational   0.200078D+09          8.301199         19.114216
 Rotational      0.621546D+05          4.793473         11.037381
 ***** Axes restored to original set *****
 -------------------------------------------------------------------
 Center     Atomic                   Forces (Hartrees/Bohr)
 Number     Number              X              Y              Z
 -------------------------------------------------------------------
      1        6           0.000032609    0.000040458    0.000001162
      2       80           0.000002675   -0.000004285    0.000000052
      3        1          -0.000009851   -0.000010653   -0.000000910
      4        1          -0.000009638   -0.000010857    0.000000214
      5        1          -0.000009762   -0.000011380   -0.000000384
      6       35          -0.000006033   -0.000003283   -0.000000134
 -------------------------------------------------------------------
 Cartesian Forces:  Max     0.000040458 RMS     0.000013787
 FormGI is forming the generalized inverse of G from B-inverse, IUseBI=4.

 GradGradGradGradGradGradGradGradGradGradGradGradGradGradGradGradGradGrad
 Berny optimization.
 Internal  Forces:  Max     0.000012306 RMS     0.000006681
 Search for a local minimum.
 Step number   1 out of a maximum of    2
 All quantities printed in internal units (Hartrees-Bohrs-Radians)
 Second derivative matrix not updated -- analytic derivatives used.
 The second derivative matrix:
                          R1        R2        R3        R4        R5
           R1           0.17098
           R2           0.00177   0.36372
           R3           0.00177  -0.00090   0.36373
           R4           0.00177  -0.00090  -0.00090   0.36372
           R5           0.00508   0.00041   0.00041   0.00041   0.13841
           A1           0.00271  -0.00051  -0.00043  -0.00145   0.00074
           A2           0.00426   0.00002  -0.00009  -0.00369   0.00116
           A3           0.00834  -0.00324  -0.00323  -0.00089   0.00228
           A4          -0.00104   0.00344   0.00343  -0.00596  -0.00028
           A5          -0.00665   0.00628  -0.00578   0.00536  -0.00182
           A6          -0.00748  -0.00602   0.00606   0.00657  -0.00205
           A7          -0.00000   0.00014   0.00014  -0.00029  -0.00000
           A8           0.00000  -0.00010   0.00010  -0.00000   0.00000
           D1           0.00529   0.00147   0.00150  -0.00764   0.00145
           D2          -0.00439  -0.00120   0.00600  -0.00093  -0.00120
           D3           0.00577  -0.00561   0.00158  -0.00107   0.00158
           D4           0.01016  -0.00441  -0.00441  -0.00015   0.00278
                          A1        A2        A3        A4        A5
           A1           0.01702
           A2          -0.00768   0.03203
           A3          -0.01104  -0.01883   0.06249
           A4          -0.00785  -0.00135   0.02282   0.03670
           A5          -0.01221   0.02226  -0.03134  -0.02222   0.06977
           A6           0.02173  -0.02637  -0.02379  -0.02797  -0.02647
           A7           0.00516   0.00773  -0.01734  -0.00366   0.00473
           A8          -0.00294   0.00388  -0.00047   0.00032   0.00177
           D1           0.01137   0.00937  -0.01119   0.01180  -0.01477
           D2          -0.00668   0.00743  -0.00573   0.00910  -0.00816
           D3          -0.00298   0.01168   0.00077  -0.00464  -0.00797
           D4           0.00370   0.00425   0.00651  -0.01374   0.00019
                          A6        A7        A8        D1        D2
           A6           0.08261
           A7           0.00333   0.10642
           A8          -0.00255   0.00000   0.01648
           D1          -0.00649   0.00882  -0.00103   0.02678
           D2           0.00400   0.00143   0.00282   0.00189   0.01661
           D3           0.00323   0.00087   0.00292   0.00069   0.00800
           D4          -0.00077  -0.00056   0.00010  -0.00120  -0.00861
                          D3        D4
           D3           0.01671
           D4           0.00871   0.01732
 ITU=  0
     Eigenvalues ---    0.01491   0.03323   0.03796   0.05592   0.09728
     Eigenvalues ---    0.12427   0.13131   0.13778   0.17590   0.36228
     Eigenvalues ---    0.36529   0.36537
 Angle between quadratic step and forces=  28.87 degrees.
 Linear search not attempted -- first point.
 Iteration  1 RMS(Cart)=  0.00008732 RMS(Int)=  0.00000002
 Iteration  2 RMS(Cart)=  0.00000001 RMS(Int)=  0.00000002
 Variable       Old X    -DE/DX   Delta X   Delta X   Delta X     New X
                                 (Linear)    (Quad)   (Total)
    R1        3.89103  -0.00001   0.00000  -0.00011  -0.00011   3.89092
    R2        2.07343   0.00000   0.00000   0.00002   0.00002   2.07346
    R3        2.07343   0.00000   0.00000   0.00002   0.00002   2.07346
    R4        2.07344   0.00000   0.00000   0.00002   0.00002   2.07346
    R5        4.60248  -0.00001   0.00000  -0.00007  -0.00007   4.60242
    A1        1.90615   0.00000   0.00000   0.00015   0.00015   1.90630
    A2        1.90616   0.00000   0.00000   0.00014   0.00014   1.90630
    A3        1.90615   0.00001   0.00000   0.00015   0.00015   1.90630
    A4        1.91511  -0.00000   0.00000  -0.00016  -0.00016   1.91495
    A5        1.91509  -0.00001   0.00000  -0.00014  -0.00014   1.91495
    A6        1.91509  -0.00001   0.00000  -0.00014  -0.00014   1.91495
    A7        3.14167  -0.00001   0.00000  -0.00008  -0.00008   3.14159
    A8        3.14153   0.00000   0.00000   0.00006   0.00006   3.14159
    D1        2.08889   0.00000   0.00000   0.00017   0.00017   2.08906
    D2       -2.08887  -0.00001   0.00000  -0.00019  -0.00019  -2.08906
    D3        2.08889   0.00001   0.00000   0.00018   0.00018   2.08906
    D4       -2.10542   0.00001   0.00000   0.00037   0.00037  -2.10506
         Item               Value     Threshold  Converged?
 Maximum Force            0.000012     0.000450     YES
 RMS     Force            0.000007     0.000300     YES
 Maximum Displacement     0.000158     0.001800     YES
 RMS     Displacement     0.000087     0.001200     YES
 Predicted change in Energy=-7.527829D-09
 Optimization completed.
    -- Stationary point found.
                           ----------------------------
                           !   Optimized Parameters   !
                           ! (Angstroms and Degrees)  !
 --------------------------                            --------------------------
 ! Name  Definition              Value          Derivative Info.                !
 --------------------------------------------------------------------------------
 ! R1    R(1,2)                  2.059          -DE/DX =    0.0                 !
 ! R2    R(1,3)                  1.0972         -DE/DX =    0.0                 !
 ! R3    R(1,4)                  1.0972         -DE/DX =    0.0                 !
 ! R4    R(1,5)                  1.0972         -DE/DX =    0.0                 !
 ! R5    R(2,6)                  2.4355         -DE/DX =    0.0                 !
 ! A1    A(2,1,3)              109.2141         -DE/DX =    0.0                 !
 ! A2    A(2,1,4)              109.2148         -DE/DX =    0.0                 !
 ! A3    A(2,1,5)              109.2143         -DE/DX =    0.0                 !
 ! A4    A(3,1,4)              109.7275         -DE/DX =    0.0                 !
 ! A5    A(3,1,5)              109.7263         -DE/DX =    0.0                 !
 ! A6    A(4,1,5)              109.7265         -DE/DX =    0.0                 !
 ! A7    L(1,2,6,5,-1)         180.0046         -DE/DX =    0.0                 !
 ! A8    L(1,2,6,5,-2)         179.9964         -DE/DX =    0.0                 !
 ! D1    D(2,1,4,3)            119.6846         -DE/DX =    0.0                 !
 ! D2    D(2,1,5,3)           -119.6835         -DE/DX =    0.0                 !
 ! D3    D(2,1,5,4)            119.6845         -DE/DX =    0.0                 !
 ! D4    D(3,1,5,4)           -120.6319         -DE/DX =    0.0                 !
 --------------------------------------------------------------------------------
 GradGradGradGradGradGradGradGradGradGradGradGradGradGradGradGradGradGrad


 ----------------------------------------------------------------------

 Electric dipole moment (input orientation):
 (Debye = 10**-18 statcoulomb cm , SI units = C m)
                  (au)            (Debye)         (10**-30 SI)
   Tot        0.139553D+01      0.354708D+01      0.118318D+02
   x         -0.986679D+00     -0.250789D+01     -0.836541D+01
   y         -0.986897D+00     -0.250844D+01     -0.836726D+01
   z         -0.219684D-03     -0.558380D-03     -0.186255D-02

 Dipole polarizability, Alpha (input orientation).
 (esu units = cm**3 , SI units = C**2 m**2 J**-1)
 Alpha(0;0):
               (au)            (10**-24 esu)      (10**-40 SI)
   iso        0.576366D+02      0.854087D+01      0.950300D+01
   aniso      0.553698D+02      0.820496D+01      0.912925D+01
   xx         0.668574D+02      0.990724D+01      0.110233D+02
   yx         0.276849D+02      0.410248D+01      0.456463D+01
   yy         0.668725D+02      0.990948D+01      0.110258D+02
   zx         0.613636D-02      0.909315D-03      0.101175D-02
   zy         0.612699D-02      0.907926D-03      0.101020D-02
   zz         0.391801D+02      0.580589D+01      0.645992D+01

 ----------------------------------------------------------------------

 Dipole orientation:
     6         -6.10381396          6.10305503          4.36607174
    80         -6.10404725          6.10325906          0.47504228
     1         -4.14898636          6.21399592          5.04832633
     1         -6.98508323          4.35465979          5.04842300
     1         -7.17725210          7.74044088          5.04859629
    35         -6.10402296          6.10325172         -4.12744227

 Electric dipole moment (dipole orientation):
 (Debye = 10**-18 statcoulomb cm , SI units = C m)
                  (au)            (Debye)         (10**-30 SI)
   Tot        0.139553D+01      0.354708D+01      0.118318D+02
   x          0.000000D+00      0.000000D+00      0.000000D+00
   y          0.000000D+00      0.000000D+00      0.000000D+00
   z          0.139553D+01      0.354708D+01      0.118318D+02

 Dipole polarizability, Alpha (dipole orientation).
 (esu units = cm**3 , SI units = C**2 m**2 J**-1)
 Alpha(0;0):
               (au)            (10**-24 esu)      (10**-40 SI)
   iso        0.576366D+02      0.854087D+01      0.950300D+01
   aniso      0.553698D+02      0.820496D+01      0.912925D+01
   xx         0.391800D+02      0.580588D+01      0.645992D+01
   yx         0.158712D-04      0.235187D-05      0.261681D-05
   yy         0.391800D+02      0.580588D+01      0.645991D+01
   zx         0.104853D-02      0.155376D-03      0.172880D-03
   zy        -0.984965D-03     -0.145957D-03     -0.162399D-03
   zz         0.945498D+02      0.140108D+02      0.155892D+02

 ----------------------------------------------------------------------

 Test job not archived.
 1\1\GINC-GRANADO-COMPUTE-1\Freq\RMP2-FC\def2SVP\C1H3Br1Hg1\ROOT\13-Aug
 -2023\0\\#N Geom=AllCheck Guess=TCheck SCRF=Check Test GenChk RMP2(FC)
 /def2SVP Freq\\Optimization MeHgbr-apfd-def2svp-gas phase\\0,1\C,-4.86
 36920263,1.5955446276,-0.0001441595\Hg,-3.4080042232,3.051784864,0.000
 1690458\H,-4.6310537443,0.8522632798,0.7727020921\H,-4.8894995857,1.11
 09709028,-0.984217224\H,-5.8363934247,2.0572602801,0.2109314595\Br,-1.
 6860059958,4.7741460457,0.0005587861\\Version=EM64L-G16RevA.03\State=1
 -A\HF=-2764.2343731\MP2=-2764.9924591\RMSD=9.207e-10\RMSF=1.379e-05\Ze
 roPoint=0.0376328\Thermal=0.0426888\Dipole=-0.986679,-0.9868966,-0.000
 2197\DipoleDeriv=-0.0551899,0.0923819,0.0000187,0.0923743,-0.0551178,0
 .0000209,0.0000154,0.0000176,-0.1475363,0.8806502,0.5453692,0.0001218,
 0.5453528,0.8809107,0.0001216,0.0001234,0.0001231,0.3354192,-0.0012709
 ,-0.092342,0.0192878,-0.0461104,-0.0668139,0.069155,-0.0173193,0.03252
 52,0.0271917,-0.006354,-0.0923446,-0.0414071,-0.070616,-0.0371886,-0.0
 712627,0.005209,-0.0246333,0.0026504,-0.100432,-0.0169989,0.022076,-0.
 0849589,-0.0041907,0.0020623,0.0120707,-0.0079336,0.0637231,-0.7174034
 ,-0.4360657,-0.0000973,-0.4360418,-0.7175997,-0.0000971,-0.0000992,-0.
 000099,-0.2814481\Polar=66.8573928,27.6849107,66.8724764,0.0061364,0.0
 06127,39.180056\PG=C01 [X(C1H3Br1Hg1)]\NImag=0\\0.45076652,-0.11437828
 ,0.45067768,-0.00002125,-0.00002330,0.56511323,-0.08698405,-0.05292052
 ,-0.00001137,0.17081230,-0.05291722,-0.08702132,-0.00001131,0.12838498
 ,0.17088956,-0.00001161,-0.00001156,-0.03408430,0.00002817,0.00002810,
 0.04246616,-0.05095961,0.04411997,-0.03831099,0.00185229,-0.01156887,0
 .01140864,0.05646489,0.05369028,-0.18086737,0.14877289,0.00173004,-0.0
 0933654,0.00798207,-0.04942001,0.18723955,-0.04588873,0.14119043,-0.19
 484966,0.00087914,-0.00255430,0.00173278,0.04886050,-0.15242524,0.2035
 8548,-0.03936904,0.00066440,-0.01429907,-0.00195270,-0.00720022,-0.013
 37023,-0.00121208,-0.00366622,-0.00589488,0.04161128,0.00516276,-0.100
 40527,-0.12628310,-0.00094906,-0.00721415,-0.01132190,0.00019370,0.011
 14635,0.02083997,0.00006434,0.10305407,-0.00464977,-0.11663113,-0.2869
 0371,0.00003783,0.00209008,0.00341577,0.00088422,-0.01218569,-0.015499
 57,0.00565809,0.12614159,0.30262565,-0.27999756,0.12444273,0.05264329,
 -0.01070312,0.00359347,0.00195857,-0.00347512,-0.00032148,0.00271926,0
 .00293344,-0.00256927,-0.00257888,0.29178022,0.11037412,-0.08892689,-0
 .02245458,-0.01595546,0.00573478,0.00333682,0.01769200,-0.00742287,-0.
 00699939,0.01157198,-0.00546812,0.00030958,-0.12312816,0.09943274,0.05
 057170,-0.02452412,-0.05774903,-0.00092011,0.00046107,-0.00078290,-0.0
 2137888,0.00869622,0.00533189,0.02625406,-0.01065602,-0.00303129,-0.05
 455267,0.02624782,0.05607497,0.00654375,-0.00192830,-0.00000061,-0.073
 02471,-0.06029213,-0.00001354,-0.00267037,-0.00201261,-0.00067529,-0.0
 0201090,-0.00190247,0.00064851,-0.00053784,-0.00055449,0.00002590,0.07
 170007,-0.00193166,0.00654317,-0.00000061,-0.06028998,-0.07305232,-0.0
 0001353,-0.00101680,-0.00075911,-0.00005148,-0.00143427,-0.00111288,0.
 00027556,-0.00201729,-0.00334963,-0.00022497,0.06669000,0.07173077,-0.
 00000034,-0.00000033,0.00847347,-0.00001365,-0.00001364,-0.01274750,-0
 .00146350,-0.00084026,-0.00030091,0.00165202,0.00127946,-0.00060686,-0
 .00018957,-0.00044025,0.00015637,0.00001503,0.00001503,0.00502543\\-0.
 00003261,-0.00004046,-0.00000116,-0.00000267,0.00000428,-0.00000005,0.
 00000985,0.00001065,0.00000091,0.00000964,0.00001086,-0.00000021,0.000
 00976,0.00001138,0.00000038,0.00000603,0.00000328,0.00000013\\\@


 TWO ROADS DIVERGED IN A WOOD, AND I--
 I TOOK THE ONE LESS TRAVELED BY,
 AND THAT HAS MADE ALL THE DIFFERENCE.

                       -- ROBERT FROST
 Job cpu time:       0 days  2 hours 30 minutes 33.5 seconds.
 Elapsed time:       0 days  2 hours 57 minutes  4.5 seconds.
 File lengths (MBytes):  RWF=   1075 Int=      0 D2E=      0 Chk=      3 Scr=      1
 Normal termination of Gaussian 16 at Sun Aug 13 21:42:27 2023.
546812,0.00030958,-0.12312816,0.09943275,0.05
 057170,-0.02452412,-0.05774903,-0.00092011,0.00046107,-0.00078290,-0.0
 2137888,0.00869622,0.00533189,0.02625406,-0.01065602,-0.00303129,-0.05
 455267,0.02624782,0.05607497,0.00654375,-0.00192830,-0.00000061,-0.073
 02471,-0.06029213,-0.00001354,-0.00267037,-0.00201261,-0.00067529,-0.0
 0201090,-0.00190247,0.00064851,-0.00053784,-0.00055449,0.00002590,0.07
 170007,-0.00193166,0.00654317,-0.00000061,-0.06028998,-0.07305232,-0.0
 0001353,-0.00101680,-0.00075911,-0.00005148,-0.00143427,-0.00111288,0.
 00027556,-0.00201729,-0.00334963,-0.00022497,0.06669000,0.07173077,-0.
 00000034,-0.00000033,0.00847347,-0.00001365,-0.00001364,-0.01274750,-0
 .00146350,-0.00084026,-0.00030091,0.00165202,0.00127946,-0.00060686,-0
 .00018957,-0.00044025,0.00015637,0.00001503,0.00001503,0.00502543\\-0.
 00003261,-0.00004046,-0.00000116,-0.00000267,0.00000428,-0.00000005,0.
 00000985,0.00001065,0.00000091,0.00000964,0.00001086,-0.00000021,0.000
 00976,0.00001138,0.00000038,0.00000603,0.00000328,0.00000013\\\@


 "WOULD YOU TELL ME PLEASE, WHICH WAY I OUGHT TO WALK FROM HERE?"
 "THAT DEPENDS A GREAT DEAL ON WHERE YOU WANT TO GO," SAID THE CAT.
 "I DON'T MUCH CARE WHERE -- ", SAID ALICE.
 "THEN IT DOESN'T MATTER WHICH WAY YOU WALK," SAID THE CAT.

                                      -- LEWIS CARROLL
 Job cpu time:       0 days  2 hours 25 minutes 23.9 seconds.
 Elapsed time:       0 days  2 hours 55 minutes 47.6 seconds.
 File lengths (MBytes):  RWF=   1075 Int=      0 D2E=      0 Chk=      3 Scr=      1
 Normal termination of Gaussian 16 at Sun Aug 13 21:42:04 2023.
